Relaxed scan of 5-4-10-12 dihedral at B3LYP-D3(BJ)/6-31G* level         
Scan      RB3LYP                                                      6-31G(d)            
Number of atoms                            I               17
Info1-9                                    I   N=           9
          28          28           0           0           0         110
           8          18        -502
Full Title                                 C   N=           6
Relaxed scan of 5-4-10-12 dihedral at B3LYP-D3(BJ)/6-31G* le
vel         
Route                                      C   N=           5
# Opt=ModRedundant B3LYP/6-31G* EmpiricalDispersion=GD3BJ   
Charge                                     I                0
Multiplicity                               I                1
Number of electrons                        I               78
Number of alpha electrons                  I               39
Number of beta electrons                   I               39
Number of basis functions                  I              168
Number of independent functions            I              168
Number of point charges in /Mol/           I                0
Number of translation vectors              I                0
Atomic numbers                             I   N=          17
           6           6           6           6           7           1
           1           1           1           6           6          16
           6           1           6           1           1
Nuclear charges                            R   N=          17
  6.00000000E+00  6.00000000E+00  6.00000000E+00  6.00000000E+00  7.00000000E+00
  1.00000000E+00  1.00000000E+00  1.00000000E+00  1.00000000E+00  6.00000000E+00
  6.00000000E+00  1.60000000E+01  6.00000000E+00  1.00000000E+00  6.00000000E+00
  1.00000000E+00  1.00000000E+00
Current cartesian coordinates              R   N=          51
 -5.67313488E+00 -1.37437191E+00  3.83099195E-01 -6.01128842E+00  1.11024192E+00
 -3.36748816E-01 -3.57875497E+00  2.21654855E+00 -5.80553162E-01 -1.79760367E+00
  3.79838216E-01  3.86982648E-03 -3.12025653E+00 -1.80237736E+00  5.68043969E-01
 -2.31698949E+00 -3.40591437E+00  1.21510623E+00 -7.02034473E+00 -2.85706713E+00
  7.72026683E-01 -7.80762787E+00  2.02327707E+00 -6.74084872E-01 -3.14650261E+00
  4.12120120E+00 -1.17919517E+00  9.31271061E-01  4.99846047E-01  6.39952165E-02
  2.44874354E+00  2.57800123E+00  4.40525488E-01  2.79314531E+00 -2.20561979E+00
 -4.33970959E-01  5.08128586E+00  2.01254997E+00  3.55063128E-01  1.68554094E+00
  4.44105649E+00  8.17700555E-01  5.57066184E+00 -4.88572149E-01 -6.66255492E-02
  6.55252498E+00  3.41291593E+00  6.28247382E-01  7.37778731E+00 -1.43340221E+00
 -1.88325224E-01
Number of symbols in /Mol/                 I                0
Force Field                                I                0
Atom Types                                 C   N=          17
                                                            
                                                            
                                                            
                        
Int Atom Types                             I   N=          17
           0           0           0           0           0           0
           0           0           0           0           0           0
           0           0           0           0           0
MM charges                                 R   N=          17
  0.00000000E+00  0.00000000E+00  0.00000000E+00  0.00000000E+00  0.00000000E+00
  0.00000000E+00  0.00000000E+00  0.00000000E+00  0.00000000E+00  0.00000000E+00
  0.00000000E+00  0.00000000E+00  0.00000000E+00  0.00000000E+00  0.00000000E+00
  0.00000000E+00  0.00000000E+00
Integer atomic weights                     I   N=          17
          12          12          12          12          14           1
           1           1           1          12          12          32
          12           1          12           1           1
Real atomic weights                        R   N=          17
  1.20000000E+01  1.20000000E+01  1.20000000E+01  1.20000000E+01  1.40030740E+01
  1.00782504E+00  1.00782504E+00  1.00782504E+00  1.00782504E+00  1.20000000E+01
  1.20000000E+01  3.19720718E+01  1.20000000E+01  1.00782504E+00  1.20000000E+01
  1.00782504E+00  1.00782504E+00
Atom fragment info                         I   N=          17
           0           0           0           0           0           0
           0           0           0           0           0           0
           0           0           0           0           0
Atom residue num                           I   N=          17
           0           0           0           0           0           0
           0           0           0           0           0           0
           0           0           0           0           0
Nuclear spins                              I   N=          17
           0           0           0           0           2           1
           1           1           1           0           0           0
           0           1           0           1           1
Nuclear ZEff                               R   N=          17
 -3.60000000E+00 -3.60000000E+00 -3.60000000E+00 -3.60000000E+00 -4.55000000E+00
 -1.00000000E+00 -1.00000000E+00 -1.00000000E+00 -1.00000000E+00 -3.60000000E+00
 -3.60000000E+00 -1.36000000E+01 -3.60000000E+00 -1.00000000E+00 -3.60000000E+00
 -1.00000000E+00 -1.00000000E+00
Nuclear ZNuc                               R   N=          17
  6.00000000E+00  6.00000000E+00  6.00000000E+00  6.00000000E+00  7.00000000E+00
  1.00000000E+00  1.00000000E+00  1.00000000E+00  1.00000000E+00  6.00000000E+00
  6.00000000E+00  1.60000000E+01  6.00000000E+00  1.00000000E+00  6.00000000E+00
  1.00000000E+00  1.00000000E+00
Nuclear QMom                               R   N=          17
  0.00000000E+00  0.00000000E+00  0.00000000E+00  0.00000000E+00  2.04400000E+00
  0.00000000E+00  0.00000000E+00  0.00000000E+00  0.00000000E+00  0.00000000E+00
  0.00000000E+00  0.00000000E+00  0.00000000E+00  0.00000000E+00  0.00000000E+00
  0.00000000E+00  0.00000000E+00
Nuclear GFac                               R   N=          17
  0.00000000E+00  0.00000000E+00  0.00000000E+00  0.00000000E+00  4.03761000E-01
  2.79284600E+00  2.79284600E+00  2.79284600E+00  2.79284600E+00  0.00000000E+00
  0.00000000E+00  0.00000000E+00  0.00000000E+00  2.79284600E+00  0.00000000E+00
  2.79284600E+00  2.79284600E+00
MicOpt                                     I   N=          17
          -1          -1          -1          -1          -1          -1
          -1          -1          -1          -1          -1          -1
          -1          -1          -1          -1          -1
Number of residues                         I                0
Number of secondary structures             I                0
Redundant internal dimensions              I   N=           4
          86          18          28          40
Redundant internal coordinate indices      I   N=         344
           1           2           0           0           1           5
           0           0           1           7           0           0
           2           3           0           0           2           8
           0           0           3           4           0           0
           3           9           0           0           4           5
           0           0           4          10           0           0
           5           6           0           0          10          11
           0           0          10          12           0           0
          11          13           0           0          11          14
           0           0          12          15           0           0
          13          15           0           0          13          16
           0           0          15          17           0           0
           2           1           5           0           2           1
           7           0           5           1           7           0
           1           2           3           0           1           2
           8           0           3           2           8           0
           2           3           4           0           2           3
           9           0           4           3           9           0
           3           4           5           0           3           4
          10           0           5           4          10           0
           1           5           4           0           1           5
           6           0           4           5           6           0
           4          10          11           0           4          10
          12           0          11          10          12           0
          10          11          13           0          10          11
          14           0          13          11          14           0
          10          12          15           0          11          13
          15           0          11          13          16           0
          15          13          16           0          12          15
          13           0          12          15          17           0
          13          15          17           0           5           1
           2           3           5           1           2           8
           7           1           2           3           7           1
           2           8           2           1           5           4
           2           1           5           6           7           1
           5           4           7           1           5           6
           1           2           3           4           1           2
           3           9           8           2           3           4
           8           2           3           9           2           3
           4           5           2           3           4          10
           9           3           4           5           9           3
           4          10           3           4           5           1
           3           4           5           6          10           4
           5           1          10           4           5           6
           3           4          10          11           3           4
          10          12           5           4          10          11
           5           4          10          12           4          10
          11          13           4          10          11          14
          12          10          11          13          12          10
          11          14           4          10          12          15
          11          10          12          15          10          11
          13          15          10          11          13          16
          14          11          13          15          14          11
          13          16          10          12          15          13
          10          12          15          17          11          13
          15          12          11          13          15          17
          16          13          15          12          16          13
          15          17
Redundant internal coordinates             R   N=          86
  2.60879950E+00  2.59510715E+00  2.04074107E+00  2.68338851E+00  2.04310162E+00
  2.62441518E+00  2.04277166E+00  2.61338246E+00  2.73217391E+00  1.90663537E+00
  2.60062045E+00  3.32176030E+00  2.69394099E+00  2.04834424E+00  3.28599959E+00
  2.58319996E+00  2.04943871E+00  2.04284535E+00  1.87995012E+00  2.29025736E+00
  2.11297654E+00  1.87572113E+00  2.19584622E+00  2.21153094E+00  1.88227852E+00
  2.21786409E+00  2.18240382E+00  1.86395312E+00  2.28104938E+00  2.13817461E+00
  1.92278974E+00  2.18626407E+00  2.16797681E+00  2.24092294E+00  2.11853478E+00
  1.92355368E+00  1.98000453E+00  2.13656445E+00  2.16621449E+00  1.60222960E+00
  1.97526984E+00  2.15779284E+00  2.14998290E+00  1.94340913E+00  2.09369038E+00
  2.24608439E+00 -5.11181752E-03  3.12305129E+00  3.13823479E+00 -1.67874062E-02
  1.11640490E-02  3.03757191E+00 -3.13196874E+00 -1.05560879E-01 -2.62070799E-03
  3.10185993E+00 -3.13062839E+00 -2.61477557E-02  9.22395834E-03 -3.13673486E+00
 -3.09620317E+00  4.10233214E-02 -1.27055886E-02 -3.04057133E+00  3.13281255E+00
  1.04946803E-01  4.46558537E-01 -2.67294696E+00 -2.69999063E+00  4.63689182E-01
 -3.13071834E+00  4.01843800E-02 -9.21857250E-03 -3.12150116E+00  3.14091784E+00
  1.77712596E-02 -7.69519745E-03 -3.13180801E+00  3.10401147E+00 -2.01013441E-02
 -2.22949783E-02  3.12094808E+00  2.11550968E-02 -3.12226949E+00 -3.13782757E+00
  1.93314695E-03
ZRed-IntVec                                I   N=          86
           0           0           0           0           0           0
           0           0           0           0           0           0
           0           0           0           0           0           0
           0           0           0           0           0           0
           0           0           0           0           0           0
           0           0           0           0           0           0
           0           0           0           0           0           0
           0           0           0           0           0           0
           0           0           0           0           0           0
           0           0           0           0           0           0
           0           0           0           0           0           0
           0           0           0       -1037           0           0
           0           0           0           0           0           0
           0           0           0           0           0           0
           0           0
ZRed-FPVec                                 R   N=          86
  0.00000000E+00  0.00000000E+00  0.00000000E+00  0.00000000E+00  0.00000000E+00
  0.00000000E+00  0.00000000E+00  0.00000000E+00  0.00000000E+00  0.00000000E+00
  0.00000000E+00  0.00000000E+00  0.00000000E+00  0.00000000E+00  0.00000000E+00
  0.00000000E+00  0.00000000E+00  0.00000000E+00  0.00000000E+00  0.00000000E+00
  0.00000000E+00  0.00000000E+00  0.00000000E+00  0.00000000E+00  0.00000000E+00
  0.00000000E+00  0.00000000E+00  0.00000000E+00  0.00000000E+00  0.00000000E+00
  0.00000000E+00  0.00000000E+00  0.00000000E+00  0.00000000E+00  0.00000000E+00
  0.00000000E+00  0.00000000E+00  0.00000000E+00  0.00000000E+00  0.00000000E+00
  0.00000000E+00  0.00000000E+00  0.00000000E+00  0.00000000E+00  0.00000000E+00
  0.00000000E+00  0.00000000E+00  0.00000000E+00  0.00000000E+00  0.00000000E+00
  0.00000000E+00  0.00000000E+00  0.00000000E+00  0.00000000E+00  0.00000000E+00
  0.00000000E+00  0.00000000E+00  0.00000000E+00  0.00000000E+00  0.00000000E+00
  0.00000000E+00  0.00000000E+00  0.00000000E+00  0.00000000E+00  0.00000000E+00
  0.00000000E+00  0.00000000E+00  0.00000000E+00  0.00000000E+00  1.74532925E-01
  0.00000000E+00  0.00000000E+00  0.00000000E+00  0.00000000E+00  0.00000000E+00
  0.00000000E+00  0.00000000E+00  0.00000000E+00  0.00000000E+00  0.00000000E+00
  0.00000000E+00  0.00000000E+00  0.00000000E+00  0.00000000E+00  0.00000000E+00
  0.00000000E+00
ZRed-Constraint1                           R   N=          86
  2.60870645E+00  2.59497393E+00  2.04069515E+00  2.68345687E+00  2.04309084E+00
  2.62415708E+00  2.04274800E+00  2.61328179E+00  2.73229813E+00  1.90659841E+00
  2.60011490E+00  3.32215544E+00  2.69459861E+00  2.04832971E+00  3.28556375E+00
  2.58306287E+00  2.04936089E+00  2.04288128E+00  1.88003813E+00  2.28981948E+00
  2.11332763E+00  1.87566948E+00  2.19571444E+00  2.21171393E+00  1.88220059E+00
  2.21815615E+00  2.18219313E+00  1.86412075E+00  2.28131234E+00  2.13774441E+00
  1.92267580E+00  2.18674123E+00  2.16794624E+00  2.24167495E+00  2.11780319E+00
  1.92353670E+00  1.98002668E+00  2.13715902E+00  2.16559586E+00  1.60221669E+00
  1.97505569E+00  2.15740570E+00  2.15058545E+00  1.94362949E+00  2.09397062E+00
  2.24558383E+00 -4.40974193E-03  3.12372039E+00  3.13757972E+00 -1.74754539E-02
  1.01549884E-02  3.03969806E+00 -3.13178631E+00 -1.02243235E-01 -2.77639862E-03
  3.10179759E+00 -3.13074757E+00 -2.61735824E-02  8.77852974E-03 -3.13707306E+00
 -3.09675286E+00  4.05808650E-02 -1.18031202E-02 -3.04280387E+00  3.13361669E+00
  1.02615946E-01  4.46652446E-01 -2.67307148E+00 -2.69977342E+00  6.74687327E+00
 -3.13108205E+00  3.99019942E-02 -9.39233193E-03 -3.12159360E+00  3.14123871E+00
  1.78987180E-02 -7.54913105E-03 -3.13174727E+00  3.10409849E+00 -2.00996497E-02
 -2.23452013E-02  3.12087050E+00  2.11140745E-02 -3.12227913E+00 -3.13779499E+00
  1.99710772E-03
ZRed-Constraint2                           R   N=          86
  0.00000000E+00  0.00000000E+00  0.00000000E+00  0.00000000E+00  0.00000000E+00
  0.00000000E+00  0.00000000E+00  0.00000000E+00  0.00000000E+00  0.00000000E+00
  0.00000000E+00  0.00000000E+00  0.00000000E+00  0.00000000E+00  0.00000000E+00
  0.00000000E+00  0.00000000E+00  0.00000000E+00  0.00000000E+00  0.00000000E+00
  0.00000000E+00  0.00000000E+00  0.00000000E+00  0.00000000E+00  0.00000000E+00
  0.00000000E+00  0.00000000E+00  0.00000000E+00  0.00000000E+00  0.00000000E+00
  0.00000000E+00  0.00000000E+00  0.00000000E+00  0.00000000E+00  0.00000000E+00
  0.00000000E+00  0.00000000E+00  0.00000000E+00  0.00000000E+00  0.00000000E+00
  0.00000000E+00  0.00000000E+00  0.00000000E+00  0.00000000E+00  0.00000000E+00
  0.00000000E+00  0.00000000E+00  0.00000000E+00  0.00000000E+00  0.00000000E+00
  0.00000000E+00  0.00000000E+00  0.00000000E+00  0.00000000E+00  0.00000000E+00
  0.00000000E+00  0.00000000E+00  0.00000000E+00  0.00000000E+00  0.00000000E+00
  0.00000000E+00  0.00000000E+00  0.00000000E+00  0.00000000E+00  0.00000000E+00
  0.00000000E+00  0.00000000E+00  0.00000000E+00  0.00000000E+00  4.63687965E-01
  0.00000000E+00  0.00000000E+00  0.00000000E+00  0.00000000E+00  0.00000000E+00
  0.00000000E+00  0.00000000E+00  0.00000000E+00  0.00000000E+00  0.00000000E+00
  0.00000000E+00  0.00000000E+00  0.00000000E+00  0.00000000E+00  0.00000000E+00
  0.00000000E+00
SymInf integers                            I   N=          26
           1           1           1           1           1           0
           0           0           0           0           0           0
           0           0           0           0           0           0
           0           0           0           0           0           0
           0           0
RotTr to input orientation                 R   N=          12
  9.86836059E-01  1.44105849E-01  7.34036521E-02  1.61710946E-01 -8.84987018E-01
 -4.36632051E-01  2.04004670E-03  4.42754426E-01 -8.96640595E-01 -9.37982191E-02
  1.04447485E+00  4.71106366E-01
Number of contracted shells                I               55
Number of primitive shells                 I              144
Pure/Cartesian d shells                    I                1
Pure/Cartesian f shells                    I                0
Highest angular momentum                   I                2
Largest degree of contraction              I                6
Shell types                                I   N=          55
           0          -1          -1           2           0          -1
          -1           2           0          -1          -1           2
           0          -1          -1           2           0          -1
          -1           2           0           0           0           0
           0           0           0           0           0          -1
          -1           2           0          -1          -1           2
           0          -1          -1          -1           2           0
          -1          -1           2           0           0           0
          -1          -1           2           0           0           0
           0
Number of primitives per shell             I   N=          55
           6           3           1           1           6           3
           1           1           6           3           1           1
           6           3           1           1           6           3
           1           1           3           1           3           1
           3           1           3           1           6           3
           1           1           6           3           1           1
           6           6           3           1           1           6
           3           1           1           3           1           6
           3           1           1           3           1           3
           1
Shell to atom map                          I   N=          55
           1           1           1           1           2           2
           2           2           3           3           3           3
           4           4           4           4           5           5
           5           5           6           6           7           7
           8           8           9           9          10          10
          10          10          11          11          11          11
          12          12          12          12          12          13
          13          13          13          14          14          15
          15          15          15          16          16          17
          17
Primitive exponents                        R   N=         144
  3.04752488E+03  4.57369518E+02  1.03948685E+02  2.92101553E+01  9.28666296E+00
  3.16392696E+00  7.86827235E+00  1.88128854E+00  5.44249258E-01  1.68714478E-01
  8.00000000E-01  3.04752488E+03  4.57369518E+02  1.03948685E+02  2.92101553E+01
  9.28666296E+00  3.16392696E+00  7.86827235E+00  1.88128854E+00  5.44249258E-01
  1.68714478E-01  8.00000000E-01  3.04752488E+03  4.57369518E+02  1.03948685E+02
  2.92101553E+01  9.28666296E+00  3.16392696E+00  7.86827235E+00  1.88128854E+00
  5.44249258E-01  1.68714478E-01  8.00000000E-01  3.04752488E+03  4.57369518E+02
  1.03948685E+02  2.92101553E+01  9.28666296E+00  3.16392696E+00  7.86827235E+00
  1.88128854E+00  5.44249258E-01  1.68714478E-01  8.00000000E-01  4.17351146E+03
  6.27457911E+02  1.42902093E+02  4.02343293E+01  1.28202129E+01  4.39043701E+00
  1.16263619E+01  2.71627981E+00  7.72218397E-01  2.12031498E-01  8.00000000E-01
  1.87311370E+01  2.82539436E+00  6.40121692E-01  1.61277759E-01  1.87311370E+01
  2.82539436E+00  6.40121692E-01  1.61277759E-01  1.87311370E+01  2.82539436E+00
  6.40121692E-01  1.61277759E-01  1.87311370E+01  2.82539436E+00  6.40121692E-01
  1.61277759E-01  3.04752488E+03  4.57369518E+02  1.03948685E+02  2.92101553E+01
  9.28666296E+00  3.16392696E+00  7.86827235E+00  1.88128854E+00  5.44249258E-01
  1.68714478E-01  8.00000000E-01  3.04752488E+03  4.57369518E+02  1.03948685E+02
  2.92101553E+01  9.28666296E+00  3.16392696E+00  7.86827235E+00  1.88128854E+00
  5.44249258E-01  1.68714478E-01  8.00000000E-01  2.19171000E+04  3.30149000E+03
  7.54146000E+02  2.12711000E+02  6.79896000E+01  2.30515000E+01  4.23735000E+02
  1.00710000E+02  3.21599000E+01  1.18079000E+01  4.63110000E+00  1.87025000E+00
  2.61584000E+00  9.22167000E-01  3.41287000E-01  1.17167000E-01  6.50000000E-01
  3.04752488E+03  4.57369518E+02  1.03948685E+02  2.92101553E+01  9.28666296E+00
  3.16392696E+00  7.86827235E+00  1.88128854E+00  5.44249258E-01  1.68714478E-01
  8.00000000E-01  1.87311370E+01  2.82539436E+00  6.40121692E-01  1.61277759E-01
  3.04752488E+03  4.57369518E+02  1.03948685E+02  2.92101553E+01  9.28666296E+00
  3.16392696E+00  7.86827235E+00  1.88128854E+00  5.44249258E-01  1.68714478E-01
  8.00000000E-01  1.87311370E+01  2.82539436E+00  6.40121692E-01  1.61277759E-01
  1.87311370E+01  2.82539436E+00  6.40121692E-01  1.61277759E-01
Contraction coefficients                   R   N=         144
  1.83473713E-03  1.40373228E-02  6.88426223E-02  2.32184443E-01  4.67941348E-01
  3.62311985E-01 -1.19332420E-01 -1.60854152E-01  1.14345644E+00  1.00000000E+00
  1.00000000E+00  1.83473713E-03  1.40373228E-02  6.88426223E-02  2.32184443E-01
  4.67941348E-01  3.62311985E-01 -1.19332420E-01 -1.60854152E-01  1.14345644E+00
  1.00000000E+00  1.00000000E+00  1.83473713E-03  1.40373228E-02  6.88426223E-02
  2.32184443E-01  4.67941348E-01  3.62311985E-01 -1.19332420E-01 -1.60854152E-01
  1.14345644E+00  1.00000000E+00  1.00000000E+00  1.83473713E-03  1.40373228E-02
  6.88426223E-02  2.32184443E-01  4.67941348E-01  3.62311985E-01 -1.19332420E-01
 -1.60854152E-01  1.14345644E+00  1.00000000E+00  1.00000000E+00  1.83477216E-03
  1.39946270E-02  6.85865518E-02  2.32240873E-01  4.69069948E-01  3.60455199E-01
 -1.14961182E-01 -1.69117479E-01  1.14585195E+00  1.00000000E+00  1.00000000E+00
  3.34946043E-02  2.34726953E-01  8.13757326E-01  1.00000000E+00  3.34946043E-02
  2.34726953E-01  8.13757326E-01  1.00000000E+00  3.34946043E-02  2.34726953E-01
  8.13757326E-01  1.00000000E+00  3.34946043E-02  2.34726953E-01  8.13757326E-01
  1.00000000E+00  1.83473713E-03  1.40373228E-02  6.88426223E-02  2.32184443E-01
  4.67941348E-01  3.62311985E-01 -1.19332420E-01 -1.60854152E-01  1.14345644E+00
  1.00000000E+00  1.00000000E+00  1.83473713E-03  1.40373228E-02  6.88426223E-02
  2.32184443E-01  4.67941348E-01  3.62311985E-01 -1.19332420E-01 -1.60854152E-01
  1.14345644E+00  1.00000000E+00  1.00000000E+00  1.86924085E-03  1.42303065E-02
  6.96962317E-02  2.38487108E-01  4.83307220E-01  3.38074154E-01 -2.37677050E-03
 -3.16930067E-02 -1.13317024E-01  5.60900118E-02  5.92255124E-01  4.55006095E-01
 -2.50373114E-01  6.69567631E-02  1.05450627E+00  1.00000000E+00  1.00000000E+00
  1.83473713E-03  1.40373228E-02  6.88426223E-02  2.32184443E-01  4.67941348E-01
  3.62311985E-01 -1.19332420E-01 -1.60854152E-01  1.14345644E+00  1.00000000E+00
  1.00000000E+00  3.34946043E-02  2.34726953E-01  8.13757326E-01  1.00000000E+00
  1.83473713E-03  1.40373228E-02  6.88426223E-02  2.32184443E-01  4.67941348E-01
  3.62311985E-01 -1.19332420E-01 -1.60854152E-01  1.14345644E+00  1.00000000E+00
  1.00000000E+00  3.34946043E-02  2.34726953E-01  8.13757326E-01  1.00000000E+00
  3.34946043E-02  2.34726953E-01  8.13757326E-01  1.00000000E+00
P(S=P) Contraction coefficients            R   N=         144
  0.00000000E+00  0.00000000E+00  0.00000000E+00  0.00000000E+00  0.00000000E+00
  0.00000000E+00  6.89990666E-02  3.16423961E-01  7.44308291E-01  1.00000000E+00
  0.00000000E+00  0.00000000E+00  0.00000000E+00  0.00000000E+00  0.00000000E+00
  0.00000000E+00  0.00000000E+00  6.89990666E-02  3.16423961E-01  7.44308291E-01
  1.00000000E+00  0.00000000E+00  0.00000000E+00  0.00000000E+00  0.00000000E+00
  0.00000000E+00  0.00000000E+00  0.00000000E+00  6.89990666E-02  3.16423961E-01
  7.44308291E-01  1.00000000E+00  0.00000000E+00  0.00000000E+00  0.00000000E+00
  0.00000000E+00  0.00000000E+00  0.00000000E+00  0.00000000E+00  6.89990666E-02
  3.16423961E-01  7.44308291E-01  1.00000000E+00  0.00000000E+00  0.00000000E+00
  0.00000000E+00  0.00000000E+00  0.00000000E+00  0.00000000E+00  0.00000000E+00
  6.75797439E-02  3.23907296E-01  7.40895140E-01  1.00000000E+00  0.00000000E+00
  0.00000000E+00  0.00000000E+00  0.00000000E+00  0.00000000E+00  0.00000000E+00
  0.00000000E+00  0.00000000E+00  0.00000000E+00  0.00000000E+00  0.00000000E+00
  0.00000000E+00  0.00000000E+00  0.00000000E+00  0.00000000E+00  0.00000000E+00
  0.00000000E+00  0.00000000E+00  0.00000000E+00  0.00000000E+00  0.00000000E+00
  0.00000000E+00  0.00000000E+00  6.89990666E-02  3.16423961E-01  7.44308291E-01
  1.00000000E+00  0.00000000E+00  0.00000000E+00  0.00000000E+00  0.00000000E+00
  0.00000000E+00  0.00000000E+00  0.00000000E+00  6.89990666E-02  3.16423961E-01
  7.44308291E-01  1.00000000E+00  0.00000000E+00  0.00000000E+00  0.00000000E+00
  0.00000000E+00  0.00000000E+00  0.00000000E+00  0.00000000E+00  4.06100998E-03
  3.06812999E-02  1.30451999E-01  3.27204999E-01  4.52850998E-01  2.56041999E-01
 -1.45104895E-02  3.10262776E-01  7.54482456E-01  1.00000000E+00  0.00000000E+00
  0.00000000E+00  0.00000000E+00  0.00000000E+00  0.00000000E+00  0.00000000E+00
  0.00000000E+00  6.89990666E-02  3.16423961E-01  7.44308291E-01  1.00000000E+00
  0.00000000E+00  0.00000000E+00  0.00000000E+00  0.00000000E+00  0.00000000E+00
  0.00000000E+00  0.00000000E+00  0.00000000E+00  0.00000000E+00  0.00000000E+00
  0.00000000E+00  6.89990666E-02  3.16423961E-01  7.44308291E-01  1.00000000E+00
  0.00000000E+00  0.00000000E+00  0.00000000E+00  0.00000000E+00  0.00000000E+00
  0.00000000E+00  0.00000000E+00  0.00000000E+00  0.00000000E+00
Coordinates of each shell                  R   N=         165
 -5.67313488E+00 -1.37437191E+00  3.83099195E-01 -5.67313488E+00 -1.37437191E+00
  3.83099195E-01 -5.67313488E+00 -1.37437191E+00  3.83099195E-01 -5.67313488E+00
 -1.37437191E+00  3.83099195E-01 -6.01128842E+00  1.11024192E+00 -3.36748816E-01
 -6.01128842E+00  1.11024192E+00 -3.36748816E-01 -6.01128842E+00  1.11024192E+00
 -3.36748816E-01 -6.01128842E+00  1.11024192E+00 -3.36748816E-01 -3.57875497E+00
  2.21654855E+00 -5.80553162E-01 -3.57875497E+00  2.21654855E+00 -5.80553162E-01
 -3.57875497E+00  2.21654855E+00 -5.80553162E-01 -3.57875497E+00  2.21654855E+00
 -5.80553162E-01 -1.79760367E+00  3.79838216E-01  3.86982648E-03 -1.79760367E+00
  3.79838216E-01  3.86982648E-03 -1.79760367E+00  3.79838216E-01  3.86982648E-03
 -1.79760367E+00  3.79838216E-01  3.86982648E-03 -3.12025653E+00 -1.80237736E+00
  5.68043969E-01 -3.12025653E+00 -1.80237736E+00  5.68043969E-01 -3.12025653E+00
 -1.80237736E+00  5.68043969E-01 -3.12025653E+00 -1.80237736E+00  5.68043969E-01
 -2.31698949E+00 -3.40591437E+00  1.21510623E+00 -2.31698949E+00 -3.40591437E+00
  1.21510623E+00 -7.02034473E+00 -2.85706713E+00  7.72026683E-01 -7.02034473E+00
 -2.85706713E+00  7.72026683E-01 -7.80762787E+00  2.02327707E+00 -6.74084872E-01
 -7.80762787E+00  2.02327707E+00 -6.74084872E-01 -3.14650261E+00  4.12120120E+00
 -1.17919517E+00 -3.14650261E+00  4.12120120E+00 -1.17919517E+00  9.31271061E-01