 Entering Gaussian System, Link 0=g16
 Initial command:
 /home/gaussian/g16_A03_avx2/g16/l1.exe "/scratch/mingdazhang.2602/tmp/Gau-50623.inp" -scrdir="/scratch/mingdazhang.2602/tmp/"
 Entering Link 1 = /home/gaussian/g16_A03_avx2/g16/l1.exe PID=     50624.
  
 Copyright (c) 1988,1990,1992,1993,1995,1998,2003,2009,2016,
            Gaussian, Inc.  All Rights Reserved.
  
 This is part of the Gaussian(R) 16 program.  It is based on
 the Gaussian(R) 09 system (copyright 2009, Gaussian, Inc.),
 the Gaussian(R) 03 system (copyright 2003, Gaussian, Inc.),
 the Gaussian(R) 98 system (copyright 1998, Gaussian, Inc.),
 the Gaussian(R) 94 system (copyright 1995, Gaussian, Inc.),
 the Gaussian 92(TM) system (copyright 1992, Gaussian, Inc.),
 the Gaussian 90(TM) system (copyright 1990, Gaussian, Inc.),
 the Gaussian 88(TM) system (copyright 1988, Gaussian, Inc.),
 the Gaussian 86(TM) system (copyright 1986, Carnegie Mellon
 University), and the Gaussian 82(TM) system (copyright 1983,
 Carnegie Mellon University). Gaussian is a federally registered
 trademark of Gaussian, Inc.
  
 This software contains proprietary and confidential information,
 including trade secrets, belonging to Gaussian, Inc.
  
 This software is provided under written license and may be
 used, copied, transmitted, or stored only in accord with that
 written license.
  
 The following legend is applicable only to US Government
 contracts under FAR:
  
                    RESTRICTED RIGHTS LEGEND
  
 Use, reproduction and disclosure by the US Government is
 subject to restrictions as set forth in subparagraphs (a)
 and (c) of the Commercial Computer Software - Restricted
 Rights clause in FAR 52.227-19.
  
 Gaussian, Inc.
 340 Quinnipiac St., Bldg. 40, Wallingford CT 06492
  
  
 ---------------------------------------------------------------
 Warning -- This program may not be used in any manner that
 competes with the business of Gaussian, Inc. or will provide
 assistance to any competitor of Gaussian, Inc.  The licensee
 of this program is prohibited from giving any competitor of
 Gaussian, Inc. access to this program.  By using this program,
 the user acknowledges that Gaussian, Inc. is engaged in the
 business of creating and licensing software in the field of
 computational chemistry and represents and warrants to the
 licensee that it is not a competitor of Gaussian, Inc. and that
 it will not use this program in any manner prohibited above.
 ---------------------------------------------------------------
  

 Cite this work as:
 Gaussian 16, Revision A.03,
 M. J. Frisch, G. W. Trucks, H. B. Schlegel, G. E. Scuseria, 
 M. A. Robb, J. R. Cheeseman, G. Scalmani, V. Barone, 
 G. A. Petersson, H. Nakatsuji, X. Li, M. Caricato, A. V. Marenich, 
 J. Bloino, B. G. Janesko, R. Gomperts, B. Mennucci, H. P. Hratchian, 
 J. V. Ortiz, A. F. Izmaylov, J. L. Sonnenberg, D. Williams-Young, 
 F. Ding, F. Lipparini, F. Egidi, J. Goings, B. Peng, A. Petrone, 
 T. Henderson, D. Ranasinghe, V. G. Zakrzewski, J. Gao, N. Rega, 
 G. Zheng, W. Liang, M. Hada, M. Ehara, K. Toyota, R. Fukuda, 
 J. Hasegawa, M. Ishida, T. Nakajima, Y. Honda, O. Kitao, H. Nakai, 
 T. Vreven, K. Throssell, J. A. Montgomery, Jr., J. E. Peralta, 
 F. Ogliaro, M. J. Bearpark, J. J. Heyd, E. N. Brothers, K. N. Kudin, 
 V. N. Staroverov, T. A. Keith, R. Kobayashi, J. Normand, 
 K. Raghavachari, A. P. Rendell, J. C. Burant, S. S. Iyengar, 
 J. Tomasi, M. Cossi, J. M. Millam, M. Klene, C. Adamo, R. Cammi, 
 J. W. Ochterski, R. L. Martin, K. Morokuma, O. Farkas, 
 J. B. Foresman, and D. J. Fox, Gaussian, Inc., Wallingford CT, 2016.
 
 ******************************************
 Gaussian 16:  ES64L-G16RevA.03 25-Dec-2016
                15-Apr-2022 
 ******************************************
 %CPU=0-27
 SetSPE:  set environment variable "MP_BIND" = "yes"
 SetSPE:  set environment variable "MP_BLIST" = "0,1,2,3,4,5,6,7,8,9,10,11,12,13,14,15,16,17,18,19,20,21,22,23,24,25,26,27"
 Will use up to   28 processors via shared memory.
 %mem=56GB
 %chk=mol_relaxed_scan.chk
 ---------------------------------------------------------
 # Opt=ModRedundant B3LYP/6-31G* EmpiricalDispersion=GD3BJ
 ---------------------------------------------------------
 1/18=120,19=15,26=3,38=1/1,3;
 2/9=110,12=2,17=6,18=5,40=1/2;
 3/5=1,6=6,7=1,11=2,25=1,30=1,71=1,74=-5,124=41/1,2,3;
 4//1;
 5/5=2,38=5/2;
 6/7=2,8=2,9=2,10=2,28=1/1;
 7//1,2,3,16;
 1/18=20,19=15,26=3/3(2);
 2/9=110/2;
 99//99;
 2/9=110/2;
 3/5=1,6=6,7=1,11=2,25=1,30=1,71=1,74=-5,124=41/1,2,3;
 4/5=5,16=3,69=1/1;
 5/5=2,38=5/2;
 7//1,2,3,16;
 1/18=20,19=15,26=3/3(-5);
 2/9=110/2;
 6/7=2,8=2,9=2,10=2,19=2,28=1/1;
 99/9=1/99;
 ---------------------------------------------------------------
 Relaxed scan of 5-4-10-12 dihedral at B3LYP-D3(BJ)/6-31G* level
 ---------------------------------------------------------------
 Symbolic Z-matrix:
 Charge =  0 Multiplicity = 1
 C                    -3.00145  -0.72776   0.20243 
 C                    -3.18117   0.58699  -0.17812 
 C                    -1.89422   1.17316  -0.30701 
 C                    -0.95132   0.20172   0.00215 
 N                    -1.65051  -0.95334   0.3011 
 H                    -1.22463  -1.80217   0.64177 
 H                    -3.71425  -1.51238   0.40847 
 H                    -4.13211   1.06951  -0.35646 
 H                    -1.66572   2.18118  -0.62354 
 C                     0.4928    0.26544   0.03382 
 C                     1.29635   1.36446   0.23286 
 S                     1.47729  -1.16702  -0.22967 
 C                     2.68959   1.06428   0.18777 
 H                     0.89371   2.35086   0.43235 
 C                     2.94744  -0.25941  -0.03529 
 H                     3.46827   1.80512   0.33234 
 H                     3.90358  -0.75974  -0.09953 
 
 The following ModRedundant input section has been read:
 D       5       4      10      12 S  36 10.000                                
 

 GradGradGradGradGradGradGradGradGradGradGradGradGradGradGradGradGradGrad
 Berny optimization.
 Initialization pass.
                           ----------------------------
                           !    Initial Parameters    !
                           ! (Angstroms and Degrees)  !
 --------------------------                            --------------------------
 ! Name  Definition              Value          Derivative Info.                !
 --------------------------------------------------------------------------------
 ! R1    R(1,2)                  1.3805         estimate D2E/DX2                !
 ! R2    R(1,5)                  1.3732         estimate D2E/DX2                !
 ! R3    R(1,7)                  1.0799         estimate D2E/DX2                !
 ! R4    R(2,3)                  1.42           estimate D2E/DX2                !
 ! R5    R(2,8)                  1.0812         estimate D2E/DX2                !
 ! R6    R(3,4)                  1.3886         estimate D2E/DX2                !
 ! R7    R(3,9)                  1.081          estimate D2E/DX2                !
 ! R8    R(4,5)                  1.3829         estimate D2E/DX2                !
 ! R9    R(4,10)                 1.4459         estimate D2E/DX2                !
 ! R10   R(5,6)                  1.0089         estimate D2E/DX2                !
 ! R11   R(10,11)                1.3759         estimate D2E/DX2                !
 ! R12   R(10,12)                1.758          estimate D2E/DX2                !
 ! R13   R(11,13)                1.4259         estimate D2E/DX2                !
 ! R14   R(11,14)                1.0839         estimate D2E/DX2                !
 ! R15   R(12,15)                1.7386         estimate D2E/DX2                !
 ! R16   R(13,15)                1.3669         estimate D2E/DX2                !
 ! R17   R(13,16)                1.0845         estimate D2E/DX2                !
 ! R18   R(15,17)                1.081          estimate D2E/DX2                !
 ! A1    A(2,1,5)              107.7183         estimate D2E/DX2                !
 ! A2    A(2,1,7)              131.197          estimate D2E/DX2                !
 ! A3    A(5,1,7)              121.0848         estimate D2E/DX2                !
 ! A4    A(1,2,3)              107.4679         estimate D2E/DX2                !
 ! A5    A(1,2,8)              125.8052         estimate D2E/DX2                !
 ! A6    A(3,2,8)              126.7219         estimate D2E/DX2                !
 ! A7    A(2,3,4)              107.8421         estimate D2E/DX2                !
 ! A8    A(2,3,9)              127.091          estimate D2E/DX2                !
 ! A9    A(4,3,9)              125.0305         estimate D2E/DX2                !
 ! A10   A(3,4,5)              106.8063         estimate D2E/DX2                !
 ! A11   A(3,4,10)             130.7096         estimate D2E/DX2                !
 ! A12   A(5,4,10)             122.4837         estimate D2E/DX2                !
 ! A13   A(1,5,4)              110.1612         estimate D2E/DX2                !
 ! A14   A(1,5,6)              125.291          estimate D2E/DX2                !
 ! A15   A(4,5,6)              124.2142         estimate D2E/DX2                !
 ! A16   A(4,10,11)            128.4385         estimate D2E/DX2                !
 ! A17   A(4,10,12)            121.3412         estimate D2E/DX2                !
 ! A18   A(11,10,12)           110.2105         estimate D2E/DX2                !
 ! A19   A(10,11,13)           113.4472         estimate D2E/DX2                !
 ! A20   A(10,11,14)           122.4502         estimate D2E/DX2                !
 ! A21   A(13,11,14)           124.0795         estimate D2E/DX2                !
 ! A22   A(10,12,15)            91.8003         estimate D2E/DX2                !
 ! A23   A(11,13,15)           113.1624         estimate D2E/DX2                !
 ! A24   A(11,13,16)           123.6102         estimate D2E/DX2                !
 ! A25   A(15,13,16)           123.2195         estimate D2E/DX2                !
 ! A26   A(12,15,13)           111.3618         estimate D2E/DX2                !
 ! A27   A(12,15,17)           119.9757         estimate D2E/DX2                !
 ! A28   A(13,15,17)           128.6625         estimate D2E/DX2                !
 ! D1    D(5,1,2,3)             -0.2527         estimate D2E/DX2                !
 ! D2    D(5,1,2,8)            178.976          estimate D2E/DX2                !
 ! D3    D(7,1,2,3)            179.7701         estimate D2E/DX2                !
 ! D4    D(7,1,2,8)             -1.0013         estimate D2E/DX2                !
 ! D5    D(2,1,5,4)              0.5818         estimate D2E/DX2                !
 ! D6    D(2,1,5,6)            174.1619         estimate D2E/DX2                !
 ! D7    D(7,1,5,4)           -179.4381         estimate D2E/DX2                !
 ! D8    D(7,1,5,6)             -5.8581         estimate D2E/DX2                !
 ! D9    D(1,2,3,4)             -0.1591         estimate D2E/DX2                !
 ! D10   D(1,2,3,9)            177.7199         estimate D2E/DX2                !
 ! D11   D(8,2,3,4)           -179.3786         estimate D2E/DX2                !
 ! D12   D(8,2,3,9)             -1.4996         estimate D2E/DX2                !
 ! D13   D(2,3,4,5)              0.503          estimate D2E/DX2                !
 ! D14   D(2,3,4,10)          -179.741          estimate D2E/DX2                !
 ! D15   D(9,3,4,5)           -177.4309         estimate D2E/DX2                !
 ! D16   D(9,3,4,10)             2.3251         estimate D2E/DX2                !
 ! D17   D(3,4,5,1)             -0.6763         estimate D2E/DX2                !
 ! D18   D(3,4,5,6)           -174.3398         estimate D2E/DX2                !
 ! D19   D(10,4,5,1)           179.543          estimate D2E/DX2                !
 ! D20   D(10,4,5,6)             5.8795         estimate D2E/DX2                !
 ! D21   D(3,4,10,11)           25.5913         estimate D2E/DX2                !
 ! D22   D(3,4,10,12)         -153.1557         estimate D2E/DX2                !
 ! D23   D(5,4,10,11)         -154.6856         estimate D2E/DX2                !
 ! D24   D(5,4,10,12)           26.5674         Scan                            !
 ! D25   D(4,10,11,13)        -179.3978         estimate D2E/DX2                !
 ! D26   D(4,10,11,14)           2.2862         estimate D2E/DX2                !
 ! D27   D(12,10,11,13)         -0.5381         estimate D2E/DX2                !
 ! D28   D(12,10,11,14)       -178.8541         estimate D2E/DX2                !
 ! D29   D(4,10,12,15)         179.9797         estimate D2E/DX2                !
 ! D30   D(11,10,12,15)          1.0255         estimate D2E/DX2                !
 ! D31   D(10,11,13,15)         -0.4325         estimate D2E/DX2                !
 ! D32   D(10,11,13,16)       -179.4359         estimate D2E/DX2                !
 ! D33   D(14,11,13,15)        177.8517         estimate D2E/DX2                !
 ! D34   D(14,11,13,16)         -1.1516         estimate D2E/DX2                !
 ! D35   D(10,12,15,13)         -1.2803         estimate D2E/DX2                !
 ! D36   D(10,12,15,17)        178.8127         estimate D2E/DX2                !
 ! D37   D(11,13,15,12)          1.2097         estimate D2E/DX2                !
 ! D38   D(11,13,15,17)       -178.8934         estimate D2E/DX2                !
 ! D39   D(16,13,15,12)       -179.7824         estimate D2E/DX2                !
 ! D40   D(16,13,15,17)          0.1144         estimate D2E/DX2                !
 --------------------------------------------------------------------------------
 Trust Radius=3.00D-01 FncErr=1.00D-07 GrdErr=1.00D-06 EigMax=2.50D+02 EigMin=1.00D-04
 Number of optimizations in scan=  37
 Number of steps in this run=     96 maximum allowed number of steps=    102.
 GradGradGradGradGradGradGradGradGradGradGradGradGradGradGradGradGradGrad

                          Input orientation:                          
 ---------------------------------------------------------------------
 Center     Atomic      Atomic             Coordinates (Angstroms)
 Number     Number       Type             X           Y           Z
 ---------------------------------------------------------------------
      1          6           0       -3.001454   -0.727759    0.202431
      2          6           0       -3.181173    0.586994   -0.178118
      3          6           0       -1.894215    1.173164   -0.307008
      4          6           0       -0.951322    0.201719    0.002152
      5          7           0       -1.650506   -0.953338    0.301096
      6          1           0       -1.224633   -1.802167    0.641769
      7          1           0       -3.714253   -1.512378    0.408469
      8          1           0       -4.132105    1.069513   -0.356456
      9          1           0       -1.665715    2.181184   -0.623539
     10          6           0        0.492796    0.265440    0.033816
     11          6           0        1.296351    1.364458    0.232861
     12         16           0        1.477288   -1.167021   -0.229673
     13          6           0        2.689588    1.064282    0.187768
     14          1           0        0.893710    2.350860    0.432346
     15          6           0        2.947441   -0.259413   -0.035287
     16          1           0        3.468266    1.805124    0.332336
     17          1           0        3.903583   -0.759739   -0.099531
 ---------------------------------------------------------------------
                    Distance matrix (angstroms):
                    1          2          3          4          5
     1  C    0.000000
     2  C    1.380468   0.000000
     3  C    2.258100   1.420024   0.000000
     4  C    2.259885   2.270059   1.388644   0.000000
     5  N    1.373201   2.223783   2.225128   1.382889   0.000000
     6  H    2.122372   3.195051   3.193918   2.121171   1.008928
     7  H    1.079889   2.244019   3.322135   3.276738   2.140819
     8  H    2.195658   1.081157   2.240835   3.316481   3.268430
     9  H    3.305809   2.244205   1.080976   2.195479   3.268090
    10  C    3.636572   3.694098   2.576421   1.445870   2.480041
    11  C    4.780107   4.563066   3.241568   2.541107   3.749773
    12  S    4.520929   4.978000   4.104812   2.797381   3.179697
    13  C    5.966539   5.901484   4.611714   3.746291   4.787489
    14  H    4.970217   4.482026   3.115468   2.864964   4.172288
    15  C    5.972036   6.188434   5.056455   3.926117   4.662167
    16  H    6.949075   6.779339   5.437310   4.713034   5.814801
    17  H    6.911710   7.212048   6.115032   4.950237   5.571884
                    6          7          8          9         10
     6  H    0.000000
     7  H    2.517263   0.000000
     8  H    4.206708   2.725045   0.000000
     9  H    4.202695   4.347867   2.718497   0.000000
    10  C    2.755752   4.582604   4.710473   2.959960   0.000000
    11  C    4.068179   5.780413   5.468311   3.189717   1.375922
    12  S    2.909158   5.242003   6.040153   4.609130   1.758009
    13  C    4.872758   6.906306   6.843369   4.568846   2.342594
    14  H    4.666784   6.013194   5.246225   2.773867   2.160679
    15  C    4.499411   6.793012   7.210351   5.252025   2.511081
    16  H    5.927191   7.912028   7.666890   5.235731   3.363505
    17  H    5.285336   7.671763   8.245269   6.319865   3.564020
                   11         12         13         14         15
    11  C    0.000000
    12  S    2.579741   0.000000
    13  C    1.425920   2.573449   0.000000
    14  H    1.083929   3.626888   2.222674   0.000000
    15  C    2.331300   1.738645   1.366898   3.354104   0.000000
    16  H    2.218400   3.621256   1.084475   2.633661   2.160722
    17  H    3.379402   2.463681   2.209836   4.360969   1.081046
                   16         17
    16  H    0.000000
    17  H    2.637145   0.000000
 Stoichiometry    C8H7NS
 Framework group  C1[X(C8H7NS)]
 Deg. of freedom    45
 Full point group                 C1      NOp   1
 Largest Abelian subgroup         C1      NOp   1
 Largest concise Abelian subgroup C1      NOp   1
                         Standard orientation:                         
 ---------------------------------------------------------------------
 Center     Atomic      Atomic             Coordinates (Angstroms)
 Number     Number       Type             X           Y           Z
 ---------------------------------------------------------------------
      1          6           0       -3.001454   -0.727759    0.202431
      2          6           0       -3.181173    0.586994   -0.178118
      3          6           0       -1.894215    1.173164   -0.307008
      4          6           0       -0.951322    0.201719    0.002152
      5          7           0       -1.650506   -0.953338    0.301096
      6          1           0       -1.224633   -1.802167    0.641769
      7          1           0       -3.714253   -1.512378    0.408469
      8          1           0       -4.132105    1.069513   -0.356456
      9          1           0       -1.665715    2.181184   -0.623539
     10          6           0        0.492796    0.265440    0.033816
     11          6           0        1.296351    1.364458    0.232861
     12         16           0        1.477288   -1.167021   -0.229673
     13          6           0        2.689588    1.064282    0.187768
     14          1           0        0.893710    2.350860    0.432346
     15          6           0        2.947441   -0.259413   -0.035287
     16          1           0        3.468266    1.805124    0.332336
     17          1           0        3.903583   -0.759739   -0.099531
 ---------------------------------------------------------------------
 Rotational constants (GHZ):           3.3768104           0.7468516           0.6228095
 Standard basis: 6-31G(d) (6D, 7F)
 There are   168 symmetry adapted cartesian basis functions of A   symmetry.
 There are   168 symmetry adapted basis functions of A   symmetry.
   168 basis functions,   332 primitive gaussians,   168 cartesian basis functions
    39 alpha electrons       39 beta electrons
       nuclear repulsion energy       550.5472219926 Hartrees.
 NAtoms=   17 NActive=   17 NUniq=   17 SFac= 1.00D+00 NAtFMM=   60 NAOKFM=F Big=F
 Integral buffers will be    131072 words long.
 Raffenetti 2 integral format.
 Two-electron integral symmetry is turned on.
 Nuclear repulsion after empirical dispersion term =      550.5123292572 Hartrees.
 One-electron integrals computed using PRISM.
 NBasis=   168 RedAO= T EigKep=  7.88D-04  NBF=   168
 NBsUse=   168 1.00D-06 EigRej= -1.00D+00 NBFU=   168
 ExpMin= 1.17D-01 ExpMax= 2.19D+04 ExpMxC= 3.30D+03 IAcc=3 IRadAn=         5 AccDes= 0.00D+00
 Harris functional with IExCor=  402 and IRadAn=       5 diagonalized for initial guess.
 HarFok:  IExCor=  402 AccDes= 0.00D+00 IRadAn=         5 IDoV= 1 UseB2=F ITyADJ=14
 ICtDFT=  3500011 ScaDFX=  1.000000  1.000000  1.000000  1.000000
 FoFCou: FMM=F IPFlag=           0 FMFlag=      100000 FMFlg1=           0
         NFxFlg=           0 DoJE=T BraDBF=F KetDBF=T FulRan=T
         wScrn=  0.000000 ICntrl=       500 IOpCl=  0 I1Cent=   200000004 NGrid=           0
         NMat0=    1 NMatS0=      1 NMatT0=    0 NMatD0=    1 NMtDS0=    0 NMtDT0=    0
 Petite list used in FoFCou.
 Requested convergence on RMS density matrix=1.00D-08 within 128 cycles.
 Requested convergence on MAX density matrix=1.00D-06.
 Requested convergence on             energy=1.00D-06.
 No special actions if energy rises.
 Integral accuracy reduced to 1.0D-05 until final iterations.
 Initial convergence to 1.0D-05 achieved.  Increase integral accuracy.
 SCF Done:  E(RB3LYP) =  -762.017600808     A.U. after   15 cycles
            NFock= 15  Conv=0.75D-08     -V/T= 2.0064

 **********************************************************************

            Population analysis using the SCF density.

 **********************************************************************

 Orbital symmetries:
       Occupied  (A) (A) (A) (A) (A) (A) (A) (A) (A) (A) (A) (A)
                 (A) (A) (A) (A) (A) (A) (A) (A) (A) (A) (A) (A)
                 (A) (A) (A) (A) (A) (A) (A) (A) (A) (A) (A) (A)
                 (A) (A) (A)
       Virtual   (A) (A) (A) (A) (A) (A) (A) (A) (A) (A) (A) (A)
                 (A) (A) (A) (A) (A) (A) (A) (A) (A) (A) (A) (A)
                 (A) (A) (A) (A) (A) (A) (A) (A) (A) (A) (A) (A)
                 (A) (A) (A) (A) (A) (A) (A) (A) (A) (A) (A) (A)
                 (A) (A) (A) (A) (A) (A) (A) (A) (A) (A) (A) (A)
                 (A) (A) (A) (A) (A) (A) (A) (A) (A) (A) (A) (A)
                 (A) (A) (A) (A) (A) (A) (A) (A) (A) (A) (A) (A)
                 (A) (A) (A) (A) (A) (A) (A) (A) (A) (A) (A) (A)
                 (A) (A) (A) (A) (A) (A) (A) (A) (A) (A) (A) (A)
                 (A) (A) (A) (A) (A) (A) (A) (A) (A) (A) (A) (A)
                 (A) (A) (A) (A) (A) (A) (A) (A) (A)
 The electronic state is 1-A.
 Alpha  occ. eigenvalues --  -88.90520 -14.38058 -10.22237 -10.21702 -10.21108
 Alpha  occ. eigenvalues --  -10.20818 -10.19155 -10.18727 -10.17112 -10.17059
 Alpha  occ. eigenvalues --   -7.96652  -5.93062  -5.92699  -5.92340  -0.97626
 Alpha  occ. eigenvalues --   -0.87439  -0.77309  -0.75929  -0.72925  -0.69200
 Alpha  occ. eigenvalues --   -0.59520  -0.58073  -0.57325  -0.54543  -0.51848
 Alpha  occ. eigenvalues --   -0.47419  -0.43282  -0.41775  -0.41331  -0.39971
 Alpha  occ. eigenvalues --   -0.38976  -0.38223  -0.37123  -0.36636  -0.33984
 Alpha  occ. eigenvalues --   -0.25881  -0.24990  -0.24245  -0.18758
 Alpha virt. eigenvalues --   -0.02318   0.02446   0.04962   0.06693   0.07623
 Alpha virt. eigenvalues --    0.10823   0.11147   0.12879   0.14098   0.15693
 Alpha virt. eigenvalues --    0.16668   0.17299   0.19855   0.22108   0.24185
 Alpha virt. eigenvalues --    0.25112   0.29166   0.30246   0.32737   0.33695
 Alpha virt. eigenvalues --    0.37006   0.40042   0.42044   0.44330   0.45465
 Alpha virt. eigenvalues --    0.47410   0.51188   0.53530   0.54481   0.55500
 Alpha virt. eigenvalues --    0.57639   0.58137   0.58897   0.60310   0.60857
 Alpha virt. eigenvalues --    0.61477   0.62336   0.63412   0.64394   0.64670
 Alpha virt. eigenvalues --    0.67886   0.70354   0.76238   0.76913   0.79952
 Alpha virt. eigenvalues --    0.81168   0.83236   0.83366   0.84437   0.84985
 Alpha virt. eigenvalues --    0.85884   0.87601   0.87700   0.90045   0.91023
 Alpha virt. eigenvalues --    0.93235   0.94157   0.95726   0.96832   1.00610
 Alpha virt. eigenvalues --    1.02470   1.06445   1.08004   1.11737   1.16215
 Alpha virt. eigenvalues --    1.17060   1.19594   1.24289   1.30554   1.32717
 Alpha virt. eigenvalues --    1.36148   1.37856   1.39733   1.43686   1.44951
 Alpha virt. eigenvalues --    1.45828   1.48591   1.52321   1.53159   1.58402
 Alpha virt. eigenvalues --    1.61108   1.65530   1.77708   1.78313   1.85531
 Alpha virt. eigenvalues --    1.87488   1.88466   1.93519   1.95367   1.98429
 Alpha virt. eigenvalues --    2.01899   2.04212   2.11286   2.16131   2.17225
 Alpha virt. eigenvalues --    2.19917   2.20755   2.22209   2.24844   2.25029
 Alpha virt. eigenvalues --    2.26921   2.28226   2.33009   2.36537   2.43926
 Alpha virt. eigenvalues --    2.50381   2.52210   2.55278   2.62172   2.62932
 Alpha virt. eigenvalues --    2.69239   2.70559   2.74498   2.80589   2.88194
 Alpha virt. eigenvalues --    2.96482   3.01488   3.13170   3.20663   3.95109
 Alpha virt. eigenvalues --    3.97049   4.09984   4.11463   4.14052   4.19321
 Alpha virt. eigenvalues --    4.29610   4.40732   4.44733   4.61919
          Condensed to atoms (all electrons):
               1          2          3          4          5          6
     1  C    4.865074   0.582164  -0.052060  -0.098272   0.349660  -0.029900
     2  C    0.582164   4.887923   0.489247  -0.015182  -0.057395   0.004680
     3  C   -0.052060   0.489247   5.015649   0.572437  -0.082273   0.008937
     4  C   -0.098272  -0.015182   0.572437   4.679302   0.343241  -0.026726
     5  N    0.349660  -0.057395  -0.082273   0.343241   6.865530   0.312341
     6  H   -0.029900   0.004680   0.008937  -0.026726   0.312341   0.396239
     7  H    0.370447  -0.036618   0.004552   0.004611  -0.049451  -0.002226
     8  H   -0.047732   0.369113  -0.037242   0.004153   0.005215  -0.000123
     9  H    0.006259  -0.045262   0.368739  -0.045886   0.005964  -0.000124
    10  C    0.009017   0.008132  -0.087857   0.334647  -0.065611  -0.007972
    11  C    0.000023   0.000194  -0.010398  -0.026308   0.003322  -0.000153
    12  S    0.000257  -0.000230   0.003728  -0.051748  -0.000439   0.008062
    13  C    0.000000  -0.000002   0.000288   0.006202  -0.000149   0.000005
    14  H   -0.000001  -0.000005   0.002491  -0.007460   0.000020  -0.000008
    15  C   -0.000001   0.000001  -0.000051   0.003667   0.000077  -0.000119
    16  H   -0.000000   0.000000  -0.000001  -0.000148   0.000001  -0.000000
    17  H    0.000000  -0.000000   0.000001  -0.000076  -0.000000   0.000001
               7          8          9         10         11         12
     1  C    0.370447  -0.047732   0.006259   0.009017   0.000023   0.000257
     2  C   -0.036618   0.369113  -0.045262   0.008132   0.000194  -0.000230
     3  C    0.004552  -0.037242   0.368739  -0.087857  -0.010398   0.003728
     4  C    0.004611   0.004153  -0.045886   0.334647  -0.026308  -0.051748
     5  N   -0.049451   0.005215   0.005964  -0.065611   0.003322  -0.000439
     6  H   -0.002226  -0.000123  -0.000124  -0.007972  -0.000153   0.008062
     7  H    0.564736  -0.001595  -0.000130  -0.000173   0.000001  -0.000009
     8  H   -0.001595   0.583604  -0.002901  -0.000210  -0.000001   0.000004
     9  H   -0.000130  -0.002901   0.588174  -0.005920   0.002199   0.000017
    10  C   -0.000173  -0.000210  -0.005920   5.273060   0.569512   0.302969
    11  C    0.000001  -0.000001   0.002199   0.569512   4.899810  -0.096824
    12  S   -0.000009   0.000004   0.000017   0.302969  -0.096824  15.406149
    13  C   -0.000000   0.000000  -0.000015  -0.021641   0.496706  -0.082584
    14  H   -0.000000  -0.000000   0.001100  -0.049803   0.363438   0.007510
    15  C   -0.000000  -0.000000   0.000001  -0.055481  -0.052877   0.307600
    16  H    0.000000   0.000000  -0.000000   0.004782  -0.036881   0.007203
    17  H    0.000000   0.000000  -0.000000   0.001887   0.004360  -0.036100
              13         14         15         16         17
     1  C    0.000000  -0.000001  -0.000001  -0.000000   0.000000
     2  C   -0.000002  -0.000005   0.000001   0.000000  -0.000000
     3  C    0.000288   0.002491  -0.000051  -0.000001   0.000001
     4  C    0.006202  -0.007460   0.003667  -0.000148  -0.000076
     5  N   -0.000149   0.000020   0.000077   0.000001  -0.000000
     6  H    0.000005  -0.000008  -0.000119  -0.000000   0.000001
     7  H   -0.000000  -0.000000  -0.000000   0.000000   0.000000
     8  H    0.000000  -0.000000  -0.000000   0.000000   0.000000
     9  H   -0.000015   0.001100   0.000001  -0.000000  -0.000000
    10  C   -0.021641  -0.049803  -0.055481   0.004782   0.001887
    11  C    0.496706   0.363438  -0.052877  -0.036881   0.004360
    12  S   -0.082584   0.007510   0.307600   0.007203  -0.036100
    13  C    4.821799  -0.043843   0.588115   0.360271  -0.021982
    14  H   -0.043843   0.582190   0.006240  -0.002333  -0.000108
    15  C    0.588115   0.006240   5.236150  -0.050026   0.358134
    16  H    0.360271  -0.002333  -0.050026   0.579309  -0.003376
    17  H   -0.021982  -0.000108   0.358134  -0.003376   0.527462
 Mulliken charges:
               1
     1  C    0.045065
     2  C   -0.186761
     3  C   -0.196186
     4  C    0.323546
     5  N   -0.630051
     6  H    0.337088
     7  H    0.145855
     8  H    0.127716
     9  H    0.127785
    10  C   -0.209338
    11  C   -0.116125
    12  S    0.224436
    13  C   -0.103171
    14  H    0.140571
    15  C   -0.341429
    16  H    0.141199
    17  H    0.169798
 Sum of Mulliken charges =  -0.00000
 Mulliken charges with hydrogens summed into heavy atoms:
               1
     1  C    0.190921
     2  C   -0.059045
     3  C   -0.068401
     4  C    0.323546
     5  N   -0.292962
    10  C   -0.209338
    11  C    0.024446
    12  S    0.224436
    13  C    0.038028
    15  C   -0.171631
 Electronic spatial extent (au):  <R**2>=           1750.2594
 Charge=             -0.0000 electrons
 Dipole moment (field-independent basis, Debye):
    X=              0.2501    Y=             -0.7918    Z=              0.6829  Tot=              1.0751
 Quadrupole moment (field-independent basis, Debye-Ang):
   XX=            -57.0658   YY=            -57.4386   ZZ=            -68.9875
   XY=              3.0296   XZ=             -0.4649   YZ=             -1.8326
 Traceless Quadrupole moment (field-independent basis, Debye-Ang):
   XX=              4.0982   YY=              3.7254   ZZ=             -7.8235
   XY=              3.0296   XZ=             -0.4649   YZ=             -1.8326
 Octapole moment (field-independent basis, Debye-Ang**2):
  XXX=             10.4488  YYY=             -3.3891  ZZZ=              1.0770  XYY=             -4.4516
  XXY=             -7.8098  XXZ=              0.9851  XZZ=             -0.3422  YZZ=             -3.1927
  YYZ=              3.4879  XYZ=              7.1745
 Hexadecapole moment (field-independent basis, Debye-Ang**3):
 XXXX=          -1662.9208 YYYY=           -416.1076 ZZZZ=            -97.2267 XXXY=              6.4388
 XXXZ=             -1.2804 YYYX=             20.6162 YYYZ=             -7.3925 ZZZX=             -3.7025
 ZZZY=             -2.3243 XXYY=           -343.4712 XXZZ=           -356.8421 YYZZ=            -93.0475
 XXYZ=             -7.4605 YYXZ=             -0.7877 ZZXY=              1.8483
 N-N= 5.505123292572D+02 E-N=-2.890381215908D+03  KE= 7.571422447344D+02
 Calling FoFJK, ICntrl=      2127 FMM=F ISym2X=0 I1Cent= 0 IOpClX= 0 NMat=1 NMatS=1 NMatT=0.
 ***** Axes restored to original set *****
 -------------------------------------------------------------------
 Center     Atomic                   Forces (Hartrees/Bohr)
 Number     Number              X              Y              Z
 -------------------------------------------------------------------
      1        6          -0.000000340   -0.000029724    0.000095443
      2        6           0.000022739    0.000068160   -0.000049214
      3        6          -0.000098697    0.000041894   -0.000005723
      4        6           0.000157406   -0.000033685    0.000082271
      5        7          -0.000059005   -0.000018582   -0.000107156
      6        1          -0.000032547   -0.000007939    0.000030179
      7        1           0.000015160   -0.000037093   -0.000002453
      8        1           0.000009230    0.000017488   -0.000010427
      9        1          -0.000020804    0.000014281   -0.000006482
     10        6          -0.000104378   -0.000171457   -0.000061061
     11        6           0.000301212    0.000100227    0.000032367
     12       16          -0.000064807   -0.000003971   -0.000005625
     13        6          -0.000286624    0.000062149   -0.000023756
     14        1          -0.000041317   -0.000007680   -0.000000575
     15        6           0.000177184    0.000046926    0.000039490
     16        1           0.000045269   -0.000018385    0.000006257
     17        1          -0.000019682   -0.000022606   -0.000013535
 -------------------------------------------------------------------
 Cartesian Forces:  Max     0.000301212 RMS     0.000083902

 GradGradGradGradGradGradGradGradGradGradGradGradGradGradGradGradGradGrad
 Berny optimization.
 FormGI is forming the generalized inverse of G from B-inverse, IUseBI=4.
 Internal  Forces:  Max     0.000165751 RMS     0.000040461
 Search for a local minimum.
 Step number   1 out of a maximum of   96 on scan point     1 out of    37
 All quantities printed in internal units (Hartrees-Bohrs-Radians)
 Mixed Optimization -- En-DIIS/RFO-DIIS
 Second derivative matrix not updated -- first step.
 ITU=  0
     Eigenvalues ---    0.01569   0.01647   0.01803   0.01975   0.01983
     Eigenvalues ---    0.02000   0.02035   0.02102   0.02106   0.02140
     Eigenvalues ---    0.02145   0.02234   0.02270   0.15854   0.15983
     Eigenvalues ---    0.15991   0.15997   0.15998   0.16000   0.16000
     Eigenvalues ---    0.22001   0.22126   0.23183   0.23781   0.24995
     Eigenvalues ---    0.25000   0.29186   0.30909   0.35459   0.35524
     Eigenvalues ---    0.35855   0.35868   0.35877   0.36008   0.38791
     Eigenvalues ---    0.39325   0.40374   0.42749   0.46152   0.46392
     Eigenvalues ---    0.46966   0.48554   0.49408   0.504161000.00000
     Eigenvalues --- 1000.000001000.000001000.000001000.000001000.00000
     Eigenvalues --- 1000.000001000.000001000.000001000.000001000.00000
     Eigenvalues --- 1000.000001000.000001000.000001000.000001000.00000
     Eigenvalues --- 1000.000001000.000001000.000001000.000001000.00000
     Eigenvalues --- 1000.000001000.000001000.000001000.000001000.00000
     Eigenvalues --- 1000.000001000.000001000.000001000.000001000.00000
     Eigenvalues --- 1000.000001000.000001000.000001000.000001000.00000
     Eigenvalues --- 1000.000001000.000001000.000001000.000001000.00000
     Eigenvalues --- 1000.00000
 RFO step:  Lambda=-5.97315372D-07 EMin= 1.56869961D-02
 Linear search not attempted -- first point.
 Iteration  1 RMS(Cart)=  0.00053731 RMS(Int)=  0.00000018
 Iteration  2 RMS(Cart)=  0.00000022 RMS(Int)=  0.00000009
 Iteration  1 RMS(Cart)=  0.00000000 RMS(Int)=  0.00000000
 Variable       Old X    -DE/DX   Delta X   Delta X   Delta X     New X
                                 (Linear)    (Quad)   (Total)
    R1        2.60871   0.00007   0.00000   0.00014   0.00014   2.60884
    R2        2.59497  -0.00002   0.00000  -0.00004  -0.00004   2.59494
    R3        2.04070   0.00002   0.00000   0.00005   0.00005   2.04074
    R4        2.68346  -0.00004   0.00000  -0.00010  -0.00010   2.68335
    R5        2.04309   0.00000   0.00000   0.00000   0.00000   2.04309
    R6        2.62416   0.00012   0.00000   0.00026   0.00026   2.62442
    R7        2.04275   0.00001   0.00000   0.00003   0.00003   2.04278
    R8        2.61328   0.00006   0.00000   0.00013   0.00013   2.61341
    R9        2.73230   0.00001   0.00000   0.00001   0.00001   2.73231
   R10        1.90660   0.00000   0.00000   0.00001   0.00001   1.90661
   R11        2.60011   0.00015   0.00000   0.00031   0.00031   2.60042
   R12        3.32216  -0.00003   0.00000  -0.00007  -0.00007   3.32209
   R13        2.69460  -0.00017   0.00000  -0.00041  -0.00041   2.69419
   R14        2.04833   0.00001   0.00000   0.00002   0.00002   2.04835
   R15        3.28556   0.00009   0.00000   0.00030   0.00030   3.28586
   R16        2.58306   0.00003   0.00000   0.00006   0.00006   2.58312
   R17        2.04936   0.00002   0.00000   0.00006   0.00006   2.04942
   R18        2.04288  -0.00001   0.00000  -0.00002  -0.00002   2.04286
    A1        1.88004   0.00000   0.00000  -0.00002  -0.00002   1.88002
    A2        2.28982   0.00003   0.00000   0.00023   0.00023   2.29005
    A3        2.11333  -0.00004   0.00000  -0.00021  -0.00021   2.11312
    A4        1.87567   0.00000   0.00000  -0.00001  -0.00001   1.87566
    A5        2.19571   0.00002   0.00000   0.00014   0.00014   2.19586
    A6        2.21171  -0.00002   0.00000  -0.00013  -0.00013   2.21158
    A7        1.88220   0.00002   0.00000   0.00009   0.00009   1.88229
    A8        2.21816  -0.00003   0.00000  -0.00020  -0.00020   2.21796
    A9        2.18219   0.00001   0.00000   0.00010   0.00010   2.18229
   A10        1.86412  -0.00005   0.00000  -0.00018  -0.00018   1.86394
   A11        2.28131  -0.00004   0.00000  -0.00018  -0.00018   2.28114
   A12        2.13774   0.00009   0.00000   0.00036   0.00036   2.13810
   A13        1.92268   0.00003   0.00000   0.00010   0.00010   1.92278
   A14        2.18674  -0.00005   0.00000  -0.00033  -0.00033   2.18641
   A15        2.16795   0.00002   0.00000   0.00009   0.00009   2.16804
   A16        2.24167  -0.00007   0.00000  -0.00029  -0.00029   2.24138
   A17        2.11780   0.00010   0.00000   0.00038   0.00038   2.11818
   A18        1.92354  -0.00003   0.00000  -0.00009  -0.00009   1.92345
   A19        1.98003   0.00002   0.00000   0.00006   0.00006   1.98008
   A20        2.13716  -0.00005   0.00000  -0.00029  -0.00029   2.13687
   A21        2.16560   0.00003   0.00000   0.00024   0.00024   2.16583
   A22        1.60222  -0.00000   0.00000   0.00003   0.00003   1.60225
   A23        1.97506   0.00004   0.00000   0.00015   0.00015   1.97521
   A24        2.15741   0.00002   0.00000   0.00020   0.00020   2.15761
   A25        2.15059  -0.00007   0.00000  -0.00036  -0.00036   2.15023
   A26        1.94363  -0.00003   0.00000  -0.00016  -0.00016   1.94347
   A27        2.09397  -0.00002   0.00000  -0.00012  -0.00012   2.09385
   A28        2.24558   0.00005   0.00000   0.00028   0.00028   2.24586
    D1       -0.00441  -0.00002   0.00000  -0.00106  -0.00106  -0.00547
    D2        3.12372  -0.00001   0.00000  -0.00067  -0.00067   3.12305
    D3        3.13758   0.00000   0.00000  -0.00004  -0.00004   3.13754
    D4       -0.01748   0.00001   0.00000   0.00036   0.00036  -0.01712
    D5        0.01015   0.00003   0.00000   0.00123   0.00123   0.01139
    D6        3.03970   0.00000   0.00000  -0.00007  -0.00007   3.03963
    D7       -3.13179   0.00001   0.00000   0.00033   0.00033  -3.13145
    D8       -0.10224  -0.00002   0.00000  -0.00097  -0.00097  -0.10321
    D9       -0.00278   0.00001   0.00000   0.00052   0.00052  -0.00226
   D10        3.10180   0.00001   0.00000   0.00039   0.00038   3.10218
   D11       -3.13075   0.00000   0.00000   0.00012   0.00012  -3.13063
   D12       -0.02617   0.00000   0.00000  -0.00001  -0.00001  -0.02619
   D13        0.00878   0.00000   0.00000   0.00022   0.00022   0.00900
   D14       -3.13707  -0.00000   0.00000  -0.00006  -0.00006  -3.13714
   D15       -3.09675   0.00001   0.00000   0.00036   0.00036  -3.09640
   D16        0.04058   0.00000   0.00000   0.00008   0.00008   0.04066
   D17       -0.01180  -0.00002   0.00000  -0.00090  -0.00090  -0.01270
   D18       -3.04280   0.00001   0.00000   0.00042   0.00042  -3.04238
   D19        3.13362  -0.00001   0.00000  -0.00064  -0.00064   3.13298
   D20        0.10262   0.00002   0.00000   0.00068   0.00068   0.10329
   D21        0.44665   0.00000   0.00000   0.00030   0.00030   0.44696
   D22       -2.67307   0.00000   0.00000   0.00032   0.00032  -2.67275
   D23       -2.69977  -0.00000   0.00000  -0.00002  -0.00002  -2.69979
   D24        0.46369  -0.00000   0.00000   0.00000   0.00000   0.46369
   D25       -3.13108   0.00000   0.00000   0.00015   0.00015  -3.13093
   D26        0.03990  -0.00000   0.00000   0.00000   0.00000   0.03991
   D27       -0.00939   0.00000   0.00000   0.00014   0.00014  -0.00925
   D28       -3.12159  -0.00000   0.00000  -0.00001  -0.00001  -3.12160
   D29        3.14124  -0.00000   0.00000   0.00003   0.00003   3.14127
   D30        0.01790   0.00000   0.00000   0.00005   0.00005   0.01795
   D31       -0.00755  -0.00001   0.00000  -0.00033  -0.00033  -0.00788
   D32       -3.13175   0.00000   0.00000   0.00003   0.00003  -3.13172
   D33        3.10410  -0.00001   0.00000  -0.00019  -0.00019   3.10391
   D34       -0.02010   0.00000   0.00000   0.00017   0.00017  -0.01993
   D35       -0.02235  -0.00000   0.00000  -0.00024  -0.00024  -0.02258
   D36        3.12087   0.00000   0.00000   0.00015   0.00015   3.12102
   D37        0.02111   0.00001   0.00000   0.00036   0.00036   0.02148
   D38       -3.12228  -0.00000   0.00000  -0.00007  -0.00007  -3.12235
   D39       -3.13779  -0.00000   0.00000   0.00001   0.00001  -3.13779
   D40        0.00200  -0.00001   0.00000  -0.00042  -0.00042   0.00157
         Item               Value     Threshold  Converged?
 Maximum Force            0.000166     0.000450     YES
 RMS     Force            0.000041     0.000300     YES
 Maximum Displacement     0.001611     0.001800     YES
 RMS     Displacement     0.000537     0.001200     YES
 Predicted change in Energy=-2.986561D-07
 Optimization completed.
    -- Stationary point found.
                           ----------------------------
                           !   Optimized Parameters   !
                           ! (Angstroms and Degrees)  !
 --------------------------                            --------------------------
 ! Name  Definition              Value          Derivative Info.                !
 --------------------------------------------------------------------------------
 ! R1    R(1,2)                  1.3805         -DE/DX =    0.0001              !
 ! R2    R(1,5)                  1.3732         -DE/DX =    0.0                 !
 ! R3    R(1,7)                  1.0799         -DE/DX =    0.0                 !
 ! R4    R(2,3)                  1.42           -DE/DX =    0.0                 !
 ! R5    R(2,8)                  1.0812         -DE/DX =    0.0                 !
 ! R6    R(3,4)                  1.3886         -DE/DX =    0.0001              !
 ! R7    R(3,9)                  1.081          -DE/DX =    0.0                 !
 ! R8    R(4,5)                  1.3829         -DE/DX =    0.0001              !
 ! R9    R(4,10)                 1.4459         -DE/DX =    0.0                 !
 ! R10   R(5,6)                  1.0089         -DE/DX =    0.0                 !
 ! R11   R(10,11)                1.3759         -DE/DX =    0.0002              !
 ! R12   R(10,12)                1.758          -DE/DX =    0.0                 !
 ! R13   R(11,13)                1.4259         -DE/DX =   -0.0002              !
 ! R14   R(11,14)                1.0839         -DE/DX =    0.0                 !
 ! R15   R(12,15)                1.7386         -DE/DX =    0.0001              !
 ! R16   R(13,15)                1.3669         -DE/DX =    0.0                 !
 ! R17   R(13,16)                1.0845         -DE/DX =    0.0                 !
 ! R18   R(15,17)                1.081          -DE/DX =    0.0                 !
 ! A1    A(2,1,5)              107.7183         -DE/DX =    0.0                 !
 ! A2    A(2,1,7)              131.197          -DE/DX =    0.0                 !
 ! A3    A(5,1,7)              121.0848         -DE/DX =    0.0                 !
 ! A4    A(1,2,3)              107.4679         -DE/DX =    0.0                 !
 ! A5    A(1,2,8)              125.8052         -DE/DX =    0.0                 !
 ! A6    A(3,2,8)              126.7219         -DE/DX =    0.0                 !
 ! A7    A(2,3,4)              107.8421         -DE/DX =    0.0                 !
 ! A8    A(2,3,9)              127.091          -DE/DX =    0.0                 !
 ! A9    A(4,3,9)              125.0305         -DE/DX =    0.0                 !
 ! A10   A(3,4,5)              106.8063         -DE/DX =   -0.0001              !
 ! A11   A(3,4,10)             130.7096         -DE/DX =    0.0                 !
 ! A12   A(5,4,10)             122.4837         -DE/DX =    0.0001              !
 ! A13   A(1,5,4)              110.1612         -DE/DX =    0.0                 !
 ! A14   A(1,5,6)              125.291          -DE/DX =    0.0                 !
 ! A15   A(4,5,6)              124.2142         -DE/DX =    0.0                 !
 ! A16   A(4,10,11)            128.4385         -DE/DX =   -0.0001              !
 ! A17   A(4,10,12)            121.3412         -DE/DX =    0.0001              !
 ! A18   A(11,10,12)           110.2105         -DE/DX =    0.0                 !
 ! A19   A(10,11,13)           113.4472         -DE/DX =    0.0                 !
 ! A20   A(10,11,14)           122.4502         -DE/DX =    0.0                 !
 ! A21   A(13,11,14)           124.0795         -DE/DX =    0.0                 !
 ! A22   A(10,12,15)            91.8003         -DE/DX =    0.0                 !
 ! A23   A(11,13,15)           113.1624         -DE/DX =    0.0                 !
 ! A24   A(11,13,16)           123.6102         -DE/DX =    0.0                 !
 ! A25   A(15,13,16)           123.2195         -DE/DX =   -0.0001              !
 ! A26   A(12,15,13)           111.3618         -DE/DX =    0.0                 !
 ! A27   A(12,15,17)           119.9757         -DE/DX =    0.0                 !
 ! A28   A(13,15,17)           128.6625         -DE/DX =    0.0                 !
 ! D1    D(5,1,2,3)             -0.2527         -DE/DX =    0.0                 !
 ! D2    D(5,1,2,8)            178.976          -DE/DX =    0.0                 !
 ! D3    D(7,1,2,3)            179.7701         -DE/DX =    0.0                 !
 ! D4    D(7,1,2,8)             -1.0013         -DE/DX =    0.0                 !
 ! D5    D(2,1,5,4)              0.5818         -DE/DX =    0.0                 !
 ! D6    D(2,1,5,6)            174.1619         -DE/DX =    0.0                 !
 ! D7    D(7,1,5,4)           -179.4381         -DE/DX =    0.0                 !
 ! D8    D(7,1,5,6)             -5.8581         -DE/DX =    0.0                 !
 ! D9    D(1,2,3,4)             -0.1591         -DE/DX =    0.0                 !
 ! D10   D(1,2,3,9)            177.7199         -DE/DX =    0.0                 !
 ! D11   D(8,2,3,4)           -179.3786         -DE/DX =    0.0                 !
 ! D12   D(8,2,3,9)             -1.4996         -DE/DX =    0.0                 !
 ! D13   D(2,3,4,5)              0.503          -DE/DX =    0.0                 !
 ! D14   D(2,3,4,10)          -179.741          -DE/DX =    0.0                 !
 ! D15   D(9,3,4,5)           -177.4309         -DE/DX =    0.0                 !
 ! D16   D(9,3,4,10)             2.3251         -DE/DX =    0.0                 !
 ! D17   D(3,4,5,1)             -0.6763         -DE/DX =    0.0                 !
 ! D18   D(3,4,5,6)           -174.3398         -DE/DX =    0.0                 !
 ! D19   D(10,4,5,1)           179.543          -DE/DX =    0.0                 !
 ! D20   D(10,4,5,6)             5.8795         -DE/DX =    0.0                 !
 ! D21   D(3,4,10,11)           25.5913         -DE/DX =    0.0                 !
 ! D22   D(3,4,10,12)         -153.1557         -DE/DX =    0.0                 !
 ! D23   D(5,4,10,11)         -154.6856         -DE/DX =    0.0                 !
 ! D24   D(5,4,10,12)           26.5674         -DE/DX =    0.0                 !
 ! D25   D(4,10,11,13)        -179.3978         -DE/DX =    0.0                 !
 ! D26   D(4,10,11,14)           2.2862         -DE/DX =    0.0                 !
 ! D27   D(12,10,11,13)         -0.5381         -DE/DX =    0.0                 !
 ! D28   D(12,10,11,14)       -178.8541         -DE/DX =    0.0                 !
 ! D29   D(4,10,12,15)         179.9797         -DE/DX =    0.0                 !
 ! D30   D(11,10,12,15)          1.0255         -DE/DX =    0.0                 !
 ! D31   D(10,11,13,15)         -0.4325         -DE/DX =    0.0                 !
 ! D32   D(10,11,13,16)       -179.4359         -DE/DX =    0.0                 !
 ! D33   D(14,11,13,15)        177.8517         -DE/DX =    0.0                 !
 ! D34   D(14,11,13,16)         -1.1516         -DE/DX =    0.0                 !
 ! D35   D(10,12,15,13)         -1.2803         -DE/DX =    0.0                 !
 ! D36   D(10,12,15,17)        178.8127         -DE/DX =    0.0                 !
 ! D37   D(11,13,15,12)          1.2097         -DE/DX =    0.0                 !
 ! D38   D(11,13,15,17)       -178.8934         -DE/DX =    0.0                 !
 ! D39   D(16,13,15,12)       -179.7824         -DE/DX =    0.0                 !
 ! D40   D(16,13,15,17)          0.1144         -DE/DX =    0.0                 !
 --------------------------------------------------------------------------------
 Iteration  1 RMS(Cart)=  0.02513248 RMS(Int)=  0.01400694
 Iteration  2 RMS(Cart)=  0.00066781 RMS(Int)=  0.01400311
 Iteration  3 RMS(Cart)=  0.00000293 RMS(Int)=  0.01400311
 Iteration  4 RMS(Cart)=  0.00000008 RMS(Int)=  0.01400311
 Iteration  1 RMS(Cart)=  0.01398805 RMS(Int)=  0.00775211
 Iteration  2 RMS(Cart)=  0.00777098 RMS(Int)=  0.00865694
 Iteration  3 RMS(Cart)=  0.00431000 RMS(Int)=  0.00979457
 Iteration  4 RMS(Cart)=  0.00238830 RMS(Int)=  0.01055779
 Iteration  5 RMS(Cart)=  0.00132278 RMS(Int)=  0.01101202
 Iteration  6 RMS(Cart)=  0.00073243 RMS(Int)=  0.01127187
 Iteration  7 RMS(Cart)=  0.00040549 RMS(Int)=  0.01141810
 Iteration  8 RMS(Cart)=  0.00022447 RMS(Int)=  0.01149974
 Iteration  9 RMS(Cart)=  0.00012426 RMS(Int)=  0.01154514
 Iteration 10 RMS(Cart)=  0.00006878 RMS(Int)=  0.01157033
 Iteration 11 RMS(Cart)=  0.00003807 RMS(Int)=  0.01158430
 Iteration 12 RMS(Cart)=  0.00002107 RMS(Int)=  0.01159203
 Iteration 13 RMS(Cart)=  0.00001167 RMS(Int)=  0.01159632
 Iteration 14 RMS(Cart)=  0.00000646 RMS(Int)=  0.01159869
 Iteration 15 RMS(Cart)=  0.00000357 RMS(Int)=  0.01160000
 Iteration 16 RMS(Cart)=  0.00000198 RMS(Int)=  0.01160073
 Iteration 17 RMS(Cart)=  0.00000110 RMS(Int)=  0.01160113
 Iteration 18 RMS(Cart)=  0.00000061 RMS(Int)=  0.01160135
 GradGradGradGradGradGradGradGradGradGradGradGradGradGradGradGradGradGrad

                          Input orientation:                          
 ---------------------------------------------------------------------
 Center     Atomic      Atomic             Coordinates (Angstroms)
 Number     Number       Type             X           Y           Z
 ---------------------------------------------------------------------
      1          6           0       -3.008523   -0.713667    0.227118
      2          6           0       -3.175417    0.584007   -0.213065
      3          6           0       -1.883106    1.154156   -0.358279
      4          6           0       -0.948372    0.183624   -0.021041
      5          7           0       -1.660087   -0.945192    0.343300
      6          1           0       -1.244357   -1.778094    0.732689
      7          1           0       -3.728783   -1.480730    0.470441
      8          1           0       -4.121557    1.068351   -0.410982
      9          1           0       -1.645119    2.149623   -0.706213
     10          6           0        0.494433    0.248046    0.048614
     11          6           0        1.289747    1.345639    0.288120
     12         16           0        1.492427   -1.148756   -0.333017
     13          6           0        2.685350    1.062881    0.218369
     14          1           0        0.878505    2.317512    0.536115
     15          6           0        2.955204   -0.242467   -0.083883
     16          1           0        3.457571    1.803443    0.395834
     17          1           0        3.915731   -0.727452   -0.188688
 ---------------------------------------------------------------------
                    Distance matrix (angstroms):
                    1          2          3          4          5
     1  C    0.000000
     2  C    1.380425   0.000000
     3  C    2.257879   1.419939   0.000000
     4  C    2.260738   2.270883   1.389025   0.000000
     5  N    1.373092   2.223560   2.224683   1.383296   0.000000
     6  H    2.121530   3.194208   3.193165   2.122276   1.009049
     7  H    1.079985   2.244222   3.322037   3.277547   2.140670
     8  H    2.195815   1.081175   2.240715   3.317212   3.268353
     9  H    3.305815   2.244140   1.081042   2.195466   3.267964
    10  C    3.636957   3.694476   2.576682   1.445921   2.480446
    11  C    4.766507   4.557298   3.243685   2.540676   3.735301
    12  S    4.556490   4.980525   4.086351   2.798225   3.230663
    13  C    5.964595   5.896105   4.605610   3.746244   4.788610
    14  H    4.938877   4.472202   3.127272   2.863805   4.138462
    15  C    5.990391   6.187428   5.043321   3.927264   4.687986
    16  H    6.940798   6.771581   5.432595   4.712741   5.809318
    17  H    6.936741   7.211442   6.098829   4.951531   5.605369
                    6          7          8          9         10
     6  H    0.000000
     7  H    2.515864   0.000000
     8  H    4.205771   2.725618   0.000000
     9  H    4.202144   4.348062   2.718282   0.000000
    10  C    2.756191   4.582811   4.710785   2.960312   0.000000
    11  C    4.046855   5.762573   5.463318   3.201332   1.376444
    12  S    3.003628   5.293088   6.036427   4.567579   1.758604
    13  C    4.876296   6.904680   6.835942   4.559476   2.343692
    14  H    4.617269   5.971437   5.240039   2.817843   2.160523
    15  C    4.545465   6.820282   7.204566   5.222294   2.512678
    16  H    5.920220   7.901585   7.657316   5.231806   3.364522
    17  H    5.345960   7.709765   8.238466   6.282392   3.565555
                   11         12         13         14         15
    11  C    0.000000
    12  S    2.578546   0.000000
    13  C    1.425667   2.572631   0.000000
    14  H    1.084048   3.625921   2.222556   0.000000
    15  C    2.331140   1.738719   1.366788   3.354187   0.000000
    16  H    2.218253   3.620566   1.084551   2.633539   2.160613
    17  H    3.379474   2.463885   2.210163   4.361409   1.081114
                   16         17
    16  H    0.000000
    17  H    2.637614   0.000000
 Stoichiometry    C8H7NS
 Framework group  C1[X(C8H7NS)]
 Deg. of freedom    45
 Full point group                 C1      NOp   1
 Largest Abelian subgroup         C1      NOp   1
 Largest concise Abelian subgroup C1      NOp   1
                         Standard orientation:                         
 ---------------------------------------------------------------------
 Center     Atomic      Atomic             Coordinates (Angstroms)
 Number     Number       Type             X           Y           Z
 ---------------------------------------------------------------------
      1          6           0       -3.013817   -0.705100    0.244537
      2          6           0       -3.176296    0.582259   -0.226502
      3          6           0       -1.882353    1.147251   -0.377235
      4          6           0       -0.950982    0.183586   -0.012146
      5          7           0       -1.666413   -0.935596    0.373989
      6          1           0       -1.254149   -1.759799    0.784972
      7          1           0       -3.736573   -1.465414    0.501276
      8          1           0       -4.120575    1.063102   -0.441138
      9          1           0       -1.640925    2.134102   -0.746678
     10          6           0        0.491479    0.247762    0.064507
     11          6           0        1.286921    1.349586    0.283262
     12         16           0        1.489723   -1.158762   -0.278842
     13          6           0        2.682510    1.063512    0.228295
     14          1           0        0.875602    2.327457    0.506295
     15          6           0        2.952290   -0.248818   -0.042104
     16          1           0        3.454719    1.806996    0.393145
     17          1           0        3.912730   -0.737321   -0.130005
 ---------------------------------------------------------------------
 Rotational constants (GHZ):           3.3754494           0.7411552           0.6244877
 Standard basis: 6-31G(d) (6D, 7F)
 There are   168 symmetry adapted cartesian basis functions of A   symmetry.
 There are   168 symmetry adapted basis functions of A   symmetry.
   168 basis functions,   332 primitive gaussians,   168 cartesian basis functions
    39 alpha electrons       39 beta electrons
       nuclear repulsion energy       550.1250093950 Hartrees.
 NAtoms=   17 NActive=   17 NUniq=   17 SFac= 1.00D+00 NAtFMM=   60 NAOKFM=F Big=F
 Integral buffers will be    131072 words long.
 Raffenetti 2 integral format.
 Two-electron integral symmetry is turned on.
 Nuclear repulsion after empirical dispersion term =      550.0901725851 Hartrees.
 One-electron integrals computed using PRISM.
 NBasis=   168 RedAO= T EigKep=  7.87D-04  NBF=   168
 NBsUse=   168 1.00D-06 EigRej= -1.00D+00 NBFU=   168
 Initial guess from the checkpoint file:  "mol_relaxed_scan.chk"
 B after Tr=    -0.000000    0.000000    0.000000
         Rot=    0.999998    0.001632    0.000611   -0.000059 Ang=   0.20 deg.
 ExpMin= 1.17D-01 ExpMax= 2.19D+04 ExpMxC= 3.30D+03 IAcc=2 IRadAn=         4 AccDes= 0.00D+00
 Harris functional with IExCor=  402 and IRadAn=       4 diagonalized for initial guess.
 HarFok:  IExCor=  402 AccDes= 0.00D+00 IRadAn=         4 IDoV= 1 UseB2=F ITyADJ=14
 ICtDFT=  3500011 ScaDFX=  1.000000  1.000000  1.000000  1.000000
 FoFCou: FMM=F IPFlag=           0 FMFlag=      100000 FMFlg1=           0
         NFxFlg=           0 DoJE=T BraDBF=F KetDBF=T FulRan=T
         wScrn=  0.000000 ICntrl=       500 IOpCl=  0 I1Cent=   200000004 NGrid=           0
         NMat0=    1 NMatS0=      1 NMatT0=    0 NMatD0=    1 NMtDS0=    0 NMtDT0=    0
 Petite list used in FoFCou.
 Requested convergence on RMS density matrix=1.00D-08 within 128 cycles.
 Requested convergence on MAX density matrix=1.00D-06.
 Requested convergence on             energy=1.00D-06.
 No special actions if energy rises.
 Integral accuracy reduced to 1.0D-05 until final iterations.
 Initial convergence to 1.0D-05 achieved.  Increase integral accuracy.
 SCF Done:  E(RB3LYP) =  -762.017229571     A.U. after   12 cycles
            NFock= 12  Conv=0.77D-08     -V/T= 2.0064
 Calling FoFJK, ICntrl=      2127 FMM=F ISym2X=0 I1Cent= 0 IOpClX= 0 NMat=1 NMatS=1 NMatT=0.
 ***** Axes restored to original set *****
 -------------------------------------------------------------------
 Center     Atomic                   Forces (Hartrees/Bohr)
 Number     Number              X              Y              Z
 -------------------------------------------------------------------
      1        6           0.000258292    0.000150291    0.000768268
      2        6          -0.000065606    0.000394714    0.000965014
      3        6           0.000546886   -0.000653309   -0.001940942
      4        6          -0.001545241    0.001839486    0.006007917
      5        7          -0.000153452   -0.001357188   -0.002236368
      6        1           0.000384207    0.000054120   -0.000594482
      7        1           0.000018150   -0.000055022   -0.000218167
      8        1           0.000008686   -0.000052566   -0.000168193
      9        1           0.000069926   -0.000203638   -0.000492388
     10        6           0.001456522    0.001266864   -0.005328818
     11        6          -0.000380894   -0.000443178    0.001617284
     12       16          -0.000055000   -0.001023348    0.002302110
     13        6           0.000078425    0.000536907   -0.000534528
     14        1          -0.000067831   -0.000168170    0.000351713
     15        6          -0.000571758   -0.000212957   -0.001109026
     16        1          -0.000009531   -0.000069368    0.000295378
     17        1           0.000028218   -0.000003639    0.000315227
 -------------------------------------------------------------------
 Cartesian Forces:  Max     0.006007917 RMS     0.001399112

 GradGradGradGradGradGradGradGradGradGradGradGradGradGradGradGradGradGrad
 Berny optimization.
 FormGI is forming the generalized inverse of G from B-inverse, IUseBI=4.
 Internal  Forces:  Max     0.001917139 RMS     0.000481349
 Search for a local minimum.
 Step number   1 out of a maximum of   96 on scan point     2 out of    37
 All quantities printed in internal units (Hartrees-Bohrs-Radians)
 Mixed Optimization -- RFO/linear search
 Second derivative matrix not updated -- first step.
 ITU=  0
     Eigenvalues ---    0.01571   0.01655   0.01811   0.01976   0.01984
     Eigenvalues ---    0.02000   0.02036   0.02102   0.02106   0.02140
     Eigenvalues ---    0.02145   0.02234   0.02270   0.15862   0.15980
     Eigenvalues ---    0.15989   0.15998   0.15999   0.15999   0.16000
     Eigenvalues ---    0.22001   0.22122   0.23174   0.23760   0.24886
     Eigenvalues ---    0.24931   0.29182   0.30905   0.35459   0.35524
     Eigenvalues ---    0.35855   0.35868   0.35877   0.36008   0.38791
     Eigenvalues ---    0.39323   0.40372   0.42749   0.46152   0.46389
     Eigenvalues ---    0.46963   0.48554   0.49409   0.504141000.00000
     Eigenvalues --- 1000.000001000.000001000.000001000.000001000.00000
     Eigenvalues --- 1000.000001000.000001000.000001000.000001000.00000
     Eigenvalues --- 1000.000001000.000001000.000001000.000001000.00000
     Eigenvalues --- 1000.000001000.000001000.000001000.000001000.00000
     Eigenvalues --- 1000.000001000.000001000.000001000.000001000.00000
     Eigenvalues --- 1000.000001000.000001000.000001000.000001000.00000
     Eigenvalues --- 1000.000001000.000001000.000001000.000001000.00000
     Eigenvalues --- 1000.000001000.000001000.000001000.000001000.00000
     Eigenvalues --- 1000.00000
 RFO step:  Lambda=-4.49552415D-04 EMin= 1.57148217D-02
 Linear search not attempted -- first point.
 Iteration  1 RMS(Cart)=  0.02732071 RMS(Int)=  0.00035741
 Iteration  2 RMS(Cart)=  0.00043858 RMS(Int)=  0.00008464
 Iteration  3 RMS(Cart)=  0.00000016 RMS(Int)=  0.00008464
 Iteration  1 RMS(Cart)=  0.00000297 RMS(Int)=  0.00000163
 Iteration  2 RMS(Cart)=  0.00000164 RMS(Int)=  0.00000182
 Iteration  3 RMS(Cart)=  0.00000091 RMS(Int)=  0.00000205
 Variable       Old X    -DE/DX   Delta X   Delta X   Delta X     New X
                                 (Linear)    (Quad)   (Total)
    R1        2.60862   0.00028   0.00000   0.00065   0.00070   2.60932
    R2        2.59477  -0.00023   0.00000  -0.00043  -0.00041   2.59436
    R3        2.04088  -0.00002   0.00000  -0.00006  -0.00006   2.04081
    R4        2.68330   0.00010   0.00000   0.00025   0.00025   2.68355
    R5        2.04313  -0.00000   0.00000  -0.00000  -0.00000   2.04312
    R6        2.62488  -0.00056   0.00000  -0.00125  -0.00129   2.62359
    R7        2.04287  -0.00001   0.00000  -0.00004  -0.00004   2.04283
    R8        2.61405  -0.00011   0.00000  -0.00028  -0.00031   2.61374
    R9        2.73240   0.00037   0.00000   0.00096   0.00096   2.73335
   R10        1.90683  -0.00012   0.00000  -0.00025  -0.00025   1.90658
   R11        2.60110  -0.00053   0.00000  -0.00114  -0.00117   2.59994
   R12        3.32328   0.00004   0.00000   0.00005   0.00002   3.32330
   R13        2.69412  -0.00011   0.00000  -0.00028  -0.00027   2.69385
   R14        2.04855  -0.00004   0.00000  -0.00013  -0.00013   2.04843
   R15        3.28570  -0.00026   0.00000  -0.00072  -0.00070   3.28500
   R16        2.58285   0.00042   0.00000   0.00088   0.00091   2.58377
   R17        2.04950  -0.00001   0.00000  -0.00002  -0.00002   2.04949
   R18        2.04301  -0.00000   0.00000  -0.00001  -0.00001   2.04300
    A1        1.87991  -0.00003   0.00000   0.00026   0.00015   1.88006
    A2        2.29014   0.00001   0.00000  -0.00009  -0.00008   2.29006
    A3        2.11311   0.00002   0.00000  -0.00008  -0.00007   2.11304
    A4        1.87553   0.00002   0.00000   0.00038   0.00022   1.87575
    A5        2.19604  -0.00001   0.00000  -0.00019  -0.00021   2.19583
    A6        2.21161  -0.00001   0.00000  -0.00024  -0.00026   2.21135
    A7        1.88291  -0.00025   0.00000  -0.00100  -0.00121   1.88171
    A8        2.21808   0.00020   0.00000   0.00118   0.00124   2.21932
    A9        2.18145   0.00007   0.00000   0.00030   0.00036   2.18181
   A10        1.86282   0.00049   0.00000   0.00217   0.00182   1.86464
   A11        2.28109   0.00028   0.00000   0.00167   0.00165   2.28274
   A12        2.13775  -0.00071   0.00000  -0.00228  -0.00230   2.13545
   A13        1.92345  -0.00021   0.00000  -0.00104  -0.00121   1.92223
   A14        2.18516   0.00050   0.00000   0.00251   0.00257   2.18773
   A15        2.16910  -0.00032   0.00000  -0.00250  -0.00243   2.16667
   A16        2.24014   0.00007   0.00000   0.00117   0.00105   2.24119
   A17        2.11815  -0.00059   0.00000  -0.00137  -0.00149   2.11665
   A18        1.92114   0.00064   0.00000   0.00324   0.00286   1.92400
   A19        1.98117  -0.00026   0.00000  -0.00100  -0.00116   1.98001
   A20        2.13591   0.00003   0.00000  -0.00003   0.00003   2.13594
   A21        2.16562   0.00023   0.00000   0.00129   0.00135   2.16697
   A22        1.60313  -0.00045   0.00000  -0.00145  -0.00166   1.60148
   A23        1.97524  -0.00017   0.00000  -0.00037  -0.00048   1.97476
   A24        2.15744   0.00008   0.00000   0.00011   0.00014   2.15758
   A25        2.15046   0.00009   0.00000   0.00017   0.00020   2.15065
   A26        1.94270   0.00030   0.00000   0.00198   0.00176   1.94446
   A27        2.09410  -0.00007   0.00000  -0.00032  -0.00042   2.09368
   A28        2.24629  -0.00022   0.00000  -0.00126  -0.00136   2.24493
    D1       -0.00644   0.00010   0.00000   0.00489   0.00489  -0.00155
    D2        3.13252  -0.00044   0.00000  -0.01560  -0.01559   3.11693
    D3        3.12757   0.00052   0.00000   0.02008   0.02006  -3.13556
    D4       -0.01666  -0.00002   0.00000  -0.00041  -0.00042  -0.01708
    D5       -0.00431   0.00061   0.00000   0.02194   0.02191   0.01761
    D6        3.02866   0.00032   0.00000   0.01165   0.01160   3.04025
    D7       -3.13923   0.00024   0.00000   0.00859   0.00859  -3.13065
    D8       -0.10627  -0.00005   0.00000  -0.00170  -0.00173  -0.10800
    D9        0.01474  -0.00077   0.00000  -0.02953  -0.02951  -0.01478
   D10        3.11612  -0.00048   0.00000  -0.01668  -0.01667   3.09944
   D11       -3.12419  -0.00022   0.00000  -0.00880  -0.00880  -3.13299
   D12       -0.02281   0.00006   0.00000   0.00405   0.00404  -0.01877
   D13       -0.01709   0.00112   0.00000   0.04214   0.04215   0.02506
   D14       -3.09919  -0.00009   0.00000   0.01170   0.01164  -3.08755
   D15       -3.11953   0.00084   0.00000   0.02960   0.02963  -3.08990
   D16        0.08156  -0.00037   0.00000  -0.00084  -0.00088   0.08068
   D17        0.01346  -0.00108   0.00000  -0.04014  -0.04015  -0.02670
   D18       -3.02071  -0.00085   0.00000  -0.03034  -0.03037  -3.05108
   D19        3.10158   0.00004   0.00000  -0.01263  -0.01266   3.08892
   D20        0.06741   0.00027   0.00000  -0.00283  -0.00287   0.06454
   D21        0.46791   0.00109   0.00000   0.07626   0.07623   0.54414
   D22       -2.57093  -0.00050   0.00000   0.03472   0.03472  -2.53621
   D23       -2.60612  -0.00032   0.00000   0.04154   0.04152  -2.56461
   D24        0.63822  -0.00192   0.00000   0.00000   0.00001   0.63822
   D25       -3.08765  -0.00038   0.00000   0.00220   0.00216  -3.08549
   D26        0.08627  -0.00052   0.00000  -0.00665  -0.00668   0.07958
   D27       -0.03945   0.00101   0.00000   0.03973   0.03977   0.00032
   D28        3.13448   0.00087   0.00000   0.03088   0.03092  -3.11779
   D29        3.10176   0.00032   0.00000  -0.00632  -0.00633   3.09542
   D30        0.04591  -0.00099   0.00000  -0.04092  -0.04095   0.00496
   D31        0.00878  -0.00048   0.00000  -0.01623  -0.01622  -0.00745
   D32       -3.12316  -0.00010   0.00000  -0.00540  -0.00541  -3.12857
   D33        3.11741  -0.00034   0.00000  -0.00723  -0.00723   3.11018
   D34       -0.01453   0.00003   0.00000   0.00359   0.00359  -0.01094
   D35       -0.04157   0.00075   0.00000   0.03240   0.03237  -0.00920
   D36        3.11351   0.00007   0.00000   0.00398   0.00395   3.11746
   D37        0.02681  -0.00030   0.00000  -0.01574  -0.01574   0.01107
   D38       -3.12976   0.00046   0.00000   0.01581   0.01579  -3.11397
   D39       -3.12439  -0.00068   0.00000  -0.02652  -0.02651   3.13228
   D40        0.00222   0.00009   0.00000   0.00504   0.00502   0.00725
         Item               Value     Threshold  Converged?
 Maximum Force            0.001321     0.000450     NO 
 RMS     Force            0.000371     0.000300     NO 
 Maximum Displacement     0.139695     0.001800     NO 
 RMS     Displacement     0.027302     0.001200     NO 
 Predicted change in Energy=-2.303600D-04
 GradGradGradGradGradGradGradGradGradGradGradGradGradGradGradGradGradGrad

                          Input orientation:                          
 ---------------------------------------------------------------------
 Center     Atomic      Atomic             Coordinates (Angstroms)
 Number     Number       Type             X           Y           Z
 ---------------------------------------------------------------------
      1          6           0       -3.006319   -0.705290    0.248083
      2          6           0       -3.175932    0.585538   -0.211906
      3          6           0       -1.884092    1.145833   -0.395825
      4          6           0       -0.949286    0.188793   -0.024733
      5          7           0       -1.657209   -0.940469    0.344942
      6          1           0       -1.235884   -1.771278    0.732441
      7          1           0       -3.725087   -1.469063    0.505607
      8          1           0       -4.123267    1.065528   -0.414649
      9          1           0       -1.647041    2.128034   -0.780136
     10          6           0        0.494223    0.253299    0.040647
     11          6           0        1.289541    1.340936    0.318881
     12         16           0        1.488871   -1.145870   -0.341100
     13          6           0        2.684481    1.061621    0.228117
     14          1           0        0.878665    2.303586    0.600842
     15          6           0        2.951896   -0.236203   -0.108892
     16          1           0        3.457981    1.795833    0.425252
     17          1           0        3.912105   -0.719907   -0.222139
 ---------------------------------------------------------------------
                    Distance matrix (angstroms):
                    1          2          3          4          5
     1  C    0.000000
     2  C    1.380795   0.000000
     3  C    2.258465   1.420073   0.000000
     4  C    2.259468   2.269448   1.388343   0.000000
     5  N    1.372876   2.223802   2.225504   1.383130   0.000000
     6  H    2.122586   3.195334   3.194165   2.120691   1.008917
     7  H    1.079952   2.244500   3.322578   3.276403   2.140407
     8  H    2.196038   1.081175   2.240694   3.315849   3.268401
     9  H    3.306447   2.244925   1.081021   2.195029   3.268275
    10  C    3.635342   3.693806   2.577499   1.446427   2.479181
    11  C    4.758830   4.559913   3.258959   2.541230   3.726772
    12  S    4.554995   4.977434   4.078207   2.797503   3.226556
    13  C    5.958823   5.896161   4.611751   3.745667   4.782498
    14  H    4.926547   4.477946   3.156986   2.864454   4.125535
    15  C    5.987303   6.183538   5.037771   3.925166   4.684635
    16  H    6.933554   6.773447   5.443749   4.712649   5.801635
    17  H    6.934400   7.207257   6.091555   4.949528   5.602454
                    6          7          8          9         10
     6  H    0.000000
     7  H    2.517721   0.000000
     8  H    4.207168   2.725724   0.000000
     9  H    4.202568   4.348623   2.719227   0.000000
    10  C    2.751501   4.580971   4.710437   2.961980   0.000000
    11  C    4.029228   5.751300   5.469224   3.232781   1.375827
    12  S    2.994648   5.292139   6.032561   4.554684   1.758616
    13  C    4.863015   6.896660   6.838026   4.573389   2.342170
    14  H    4.592728   5.952855   5.251984   2.883940   2.159928
    15  C    4.538920   6.817599   7.200412   5.214442   2.510405
    16  H    5.903474   7.890657   7.662512   5.255907   3.363212
    17  H    5.340261   7.708278   8.233592   6.271063   3.563440
                   11         12         13         14         15
    11  C    0.000000
    12  S    2.580603   0.000000
    13  C    1.425522   2.574200   0.000000
    14  H    1.083981   3.627444   2.223144   0.000000
    15  C    2.331047   1.738349   1.367272   3.354480   0.000000
    16  H    2.218192   3.621920   1.084543   2.634675   2.161158
    17  H    3.378996   2.463261   2.209894   4.361257   1.081108
                   16         17
    16  H    0.000000
    17  H    2.637099   0.000000
 Stoichiometry    C8H7NS
 Framework group  C1[X(C8H7NS)]
 Deg. of freedom    45
 Full point group                 C1      NOp   1
 Largest Abelian subgroup         C1      NOp   1
 Largest concise Abelian subgroup C1      NOp   1
                         Standard orientation:                         
 ---------------------------------------------------------------------
 Center     Atomic      Atomic             Coordinates (Angstroms)
 Number     Number       Type             X           Y           Z
 ---------------------------------------------------------------------
      1          6           0       -3.010974   -0.697672    0.268068
      2          6           0       -3.176055    0.580987   -0.226273
      3          6           0       -1.882376    1.134926   -0.416415
      4          6           0       -0.951138    0.186809   -0.014713
      5          7           0       -1.662800   -0.931727    0.379574
      6          1           0       -1.244977   -1.752674    0.791138
      7          1           0       -3.732314   -1.453736    0.540708
      8          1           0       -4.121486    1.056591   -0.447408
      9          1           0       -1.641668    2.106582   -0.824521
     10          6           0        0.492007    0.251420    0.058162
     11          6           0        1.286905    1.345037    0.313189
     12         16           0        1.487305   -1.158249   -0.280874
     13          6           0        2.682042    1.061950    0.238573
     14          1           0        0.875455    2.315115    0.567498
     15          6           0        2.949965   -0.244459   -0.062996
     16          1           0        3.455194    1.800184    0.421545
     17          1           0        3.910266   -0.731977   -0.157561
 ---------------------------------------------------------------------
 Rotational constants (GHZ):           3.3731340           0.7408186           0.6259910
 Standard basis: 6-31G(d) (6D, 7F)
 There are   168 symmetry adapted cartesian basis functions of A   symmetry.
 There are   168 symmetry adapted basis functions of A   symmetry.
   168 basis functions,   332 primitive gaussians,   168 cartesian basis functions
    39 alpha electrons       39 beta electrons
       nuclear repulsion energy       550.2030413068 Hartrees.
 NAtoms=   17 NActive=   17 NUniq=   17 SFac= 1.00D+00 NAtFMM=   60 NAOKFM=F Big=F
 Integral buffers will be    131072 words long.
 Raffenetti 2 integral format.
 Two-electron integral symmetry is turned on.
 Nuclear repulsion after empirical dispersion term =      550.1682089449 Hartrees.
 One-electron integrals computed using PRISM.
 NBasis=   168 RedAO= T EigKep=  8.04D-04  NBF=   168
 NBsUse=   168 1.00D-06 EigRej= -1.00D+00 NBFU=   168
 Initial guess from the checkpoint file:  "mol_relaxed_scan.chk"
 B after Tr=     0.000000    0.000000   -0.000000
         Rot=    1.000000    0.000766   -0.000095   -0.000026 Ang=   0.09 deg.
 ExpMin= 1.17D-01 ExpMax= 2.19D+04 ExpMxC= 3.30D+03 IAcc=2 IRadAn=         4 AccDes= 0.00D+00
 Harris functional with IExCor=  402 and IRadAn=       4 diagonalized for initial guess.
 HarFok:  IExCor=  402 AccDes= 0.00D+00 IRadAn=         4 IDoV= 1 UseB2=F ITyADJ=14
 ICtDFT=  3500011 ScaDFX=  1.000000  1.000000  1.000000  1.000000
 FoFCou: FMM=F IPFlag=           0 FMFlag=      100000 FMFlg1=           0
         NFxFlg=           0 DoJE=T BraDBF=F KetDBF=T FulRan=T
         wScrn=  0.000000 ICntrl=       500 IOpCl=  0 I1Cent=   200000004 NGrid=           0
         NMat0=    1 NMatS0=      1 NMatT0=    0 NMatD0=    1 NMtDS0=    0 NMtDT0=    0
 Petite list used in FoFCou.
 Requested convergence on RMS density matrix=1.00D-08 within 128 cycles.
 Requested convergence on MAX density matrix=1.00D-06.
 Requested convergence on             energy=1.00D-06.
 No special actions if energy rises.
 Integral accuracy reduced to 1.0D-05 until final iterations.
 Initial convergence to 1.0D-05 achieved.  Increase integral accuracy.
 SCF Done:  E(RB3LYP) =  -762.017293112     A.U. after   12 cycles
            NFock= 12  Conv=0.39D-08     -V/T= 2.0064
 Calling FoFJK, ICntrl=      2127 FMM=F ISym2X=0 I1Cent= 0 IOpClX= 0 NMat=1 NMatS=1 NMatT=0.
 ***** Axes restored to original set *****
 -------------------------------------------------------------------
 Center     Atomic                   Forces (Hartrees/Bohr)
 Number     Number              X              Y              Z
 -------------------------------------------------------------------
      1        6          -0.000140072    0.000045422   -0.000528866
      2        6          -0.000248652   -0.000688568   -0.001071625
      3        6           0.000368592    0.000436820    0.001624397
      4        6          -0.000471284    0.000096581    0.001344856
      5        7          -0.000137897    0.000104434    0.000589467
      6        1           0.000087459    0.000166723    0.000296473
      7        1          -0.000040283   -0.000009029   -0.000099339
      8        1          -0.000033829   -0.000048113   -0.000046174
      9        1           0.000097190    0.000096056    0.000405103
     10        6           0.000588851   -0.000022920   -0.002054278
     11        6          -0.000443741   -0.000068620   -0.000556687
     12       16           0.000170474    0.000323063   -0.000819867
     13        6           0.000399234   -0.000143355    0.000043481
     14        1          -0.000136560   -0.000012209   -0.000289955
     15        6          -0.000181966   -0.000290308    0.001146213
     16        1           0.000039189    0.000002282   -0.000222514
     17        1           0.000083293    0.000011743    0.000239315
 -------------------------------------------------------------------
 Cartesian Forces:  Max     0.002054278 RMS     0.000549644

 GradGradGradGradGradGradGradGradGradGradGradGradGradGradGradGradGradGrad
 Berny optimization.
 Using GEDIIS/GDIIS optimizer.
[...]
           D6         174.52105 174.04005
           D7        -179.31033-179.44859
           D8          -5.50251  -6.04819
           D9          -0.18549  -0.15016
           D10        178.01725 177.72348
           D11       -179.58092-179.37179
           D12         -1.37817  -1.49816
           D13          0.60658   0.52849
           D14        179.46608-179.72167
           D15       -177.63668-177.39937
           D16          1.22281   2.35046
           D17         -0.82225  -0.72798
           D18       -174.67523-174.21190
           D19       -179.79171 179.49694
           D20          6.35532   6.01301
           D21         17.90670  25.58592
           D22       -162.13396-153.14858
           D23       -163.39197-154.69807
           D24         16.56737  26.56743
           D25        179.70541-179.37695
           D26          1.11354   2.30240
           D27         -0.25769  -0.52819
           D28       -178.84955-178.84884
           D29       -179.29247 179.96134
           D30          0.67355   1.01822
           D31         -0.45996  -0.44090
           D32       -179.74921-179.43938
           D33        178.10815 177.84676
           D34         -1.18110  -1.15172
           D35         -0.93916  -1.27741
           D36        179.35514 178.81715
           D37          0.96484   1.21210
           D38       -179.36254-178.89286
           D39       -179.74234-179.78428
           D40         -0.06972   0.11076
 GradGradGradGradGradGradGradGradGradGradGradGradGradGradGradGradGradGrad

                          Input orientation:                          
 ---------------------------------------------------------------------
 Center     Atomic      Atomic             Coordinates (Angstroms)
 Number     Number       Type             X           Y           Z
 ---------------------------------------------------------------------
      1          6           0       -3.129407    0.853490    0.164717
      2          6           0       -3.094154   -0.504535   -0.080948
      3          6           0       -1.729450   -0.894259   -0.126397
      4          6           0       -0.955856    0.238654    0.089874
      5          7           0       -1.832692    1.291940    0.275020
      6          1           0       -1.549739    2.255759    0.369709
      7          1           0       -3.959395    1.536248    0.270433
      8          1           0       -3.954455   -1.148144   -0.201626
      9          1           0       -1.341381   -1.893533   -0.265643
     10          6           0        0.479527    0.404637    0.139616
     11          6           0        1.450210   -0.364656   -0.460267
     12         16           0        1.219764    1.696958    1.073327
     13          6           0        2.776473    0.080881   -0.186808
     14          1           0        1.211493   -1.206982   -1.099344
     15          6           0        2.817545    1.190713    0.610183
     16          1           0        3.664900   -0.398732   -0.582844
     17          1           0        3.680262    1.742484    0.956431
 ---------------------------------------------------------------------
                    Distance matrix (angstroms):
                    1          2          3          4          5
     1  C    0.000000
     2  C    1.380517   0.000000
     3  C    2.258153   1.419988   0.000000
     4  C    2.260077   2.270204   1.388781   0.000000
     5  N    1.373272   2.223808   2.225142   1.382942   0.000000
     6  H    2.122199   3.194923   3.193905   2.121253   1.008948
     7  H    1.079914   2.244305   3.322272   3.276827   2.140695
     8  H    2.195780   1.081163   2.240706   3.316591   3.268498
     9  H    3.305810   2.244023   1.080988   2.195733   3.268170
    10  C    3.636826   3.694108   2.576329   1.445804   2.480322
    11  C    4.779893   4.562312   3.240708   2.540825   3.749987
    12  S    4.522422   4.978836   4.105071   2.797705   3.181009
    13  C    5.966566   5.900693   4.610628   3.745895   4.787938
    14  H    4.968582   4.479861   3.113450   2.863827   4.171396
    15  C    5.973139   6.188676   5.056166   3.926282   4.663398
    16  H    6.949066   6.778488   5.436258   4.712770   5.815309
    17  H    6.912938   7.212348   6.114729   4.950355   5.573147
                    6          7          8          9         10
     6  H    0.000000
     7  H    2.516743   0.000000
     8  H    4.206618   2.725587   0.000000
     9  H    4.202821   4.347961   2.718061   0.000000
    10  C    2.756359   4.582759   4.710389   2.959987   0.000000
    11  C    4.068799   5.780241   5.467280   3.188781   1.376189
    12  S    2.911612   5.243487   6.040915   4.609113   1.757800
    13  C    4.874004   6.906452   6.842230   4.567411   2.342505
    14  H    4.666165   6.011629   5.243699   2.771926   2.160582
    15  C    4.501702   6.794243   7.210358   5.251315   2.511111
    16  H    5.928418   7.912149   7.665606   5.234300   3.363622
    17  H    5.287779   7.673166   8.245346   6.319097   3.563948
                   11         12         13         14         15
    11  C    0.000000
    12  S    2.579780   0.000000
    13  C    1.425572   2.573517   0.000000
    14  H    1.083937   3.626767   2.222718   0.000000
    15  C    2.331231   1.738876   1.366971   3.354225   0.000000
    16  H    2.218341   3.621258   1.084516   2.634245   2.160477
    17  H    3.379379   2.463694   2.210148   4.361236   1.081027
                   16         17
    16  H    0.000000
    17  H    2.637121   0.000000
 Stoichiometry    C8H7NS
 Framework group  C1[X(C8H7NS)]
 Deg. of freedom    45
 Full point group                 C1      NOp   1
 Largest Abelian subgroup         C1      NOp   1
 Largest concise Abelian subgroup C1      NOp   1
                         Standard orientation:                         
 ---------------------------------------------------------------------
 Center     Atomic      Atomic             Coordinates (Angstroms)
 Number     Number       Type             X           Y           Z
 ---------------------------------------------------------------------
      1          6           0       -3.002094   -0.727286    0.202727
      2          6           0       -3.181037    0.587515   -0.178200
      3          6           0       -1.893796    1.172947   -0.307216
      4          6           0       -0.951251    0.201002    0.002048
      5          7           0       -1.651169   -0.953777    0.300596
      6          1           0       -1.226098   -1.802332    0.643007
      7          1           0       -3.715006   -1.511895    0.408539
      8          1           0       -4.131619    1.070672   -0.356710
      9          1           0       -1.665057    2.180846   -0.624003
     10          6           0        0.492807    0.264507    0.033865
     11          6           0        1.295819    1.364220    0.233116
     12         16           0        1.478069   -1.167164   -0.229648
     13          6           0        2.688901    1.064996    0.187891
     14          1           0        0.891950    2.350106    0.432708
     15          6           0        2.947867   -0.258541   -0.035257
     16          1           0        3.467447    1.806037    0.332454
     17          1           0        3.904157   -0.758524   -0.099657
 ---------------------------------------------------------------------
 Rotational constants (GHZ):           3.3765297           0.7467514           0.6227356

 **********************************************************************

            Population analysis using the SCF density.

 **********************************************************************

 Orbital symmetries:
       Occupied  (A) (A) (A) (A) (A) (A) (A) (A) (A) (A) (A) (A)
                 (A) (A) (A) (A) (A) (A) (A) (A) (A) (A) (A) (A)
                 (A) (A) (A) (A) (A) (A) (A) (A) (A) (A) (A) (A)
                 (A) (A) (A)
       Virtual   (A) (A) (A) (A) (A) (A) (A) (A) (A) (A) (A) (A)
                 (A) (A) (A) (A) (A) (A) (A) (A) (A) (A) (A) (A)
                 (A) (A) (A) (A) (A) (A) (A) (A) (A) (A) (A) (A)
                 (A) (A) (A) (A) (A) (A) (A) (A) (A) (A) (A) (A)
                 (A) (A) (A) (A) (A) (A) (A) (A) (A) (A) (A) (A)
                 (A) (A) (A) (A) (A) (A) (A) (A) (A) (A) (A) (A)
                 (A) (A) (A) (A) (A) (A) (A) (A) (A) (A) (A) (A)
                 (A) (A) (A) (A) (A) (A) (A) (A) (A) (A) (A) (A)
                 (A) (A) (A) (A) (A) (A) (A) (A) (A) (A) (A) (A)
                 (A) (A) (A) (A) (A) (A) (A) (A) (A) (A) (A) (A)
                 (A) (A) (A) (A) (A) (A) (A) (A) (A)
 The electronic state is 1-A.
 Alpha  occ. eigenvalues --  -88.90520 -14.38059 -10.22237 -10.21705 -10.21107
 Alpha  occ. eigenvalues --  -10.20820 -10.19154 -10.18726 -10.17114 -10.17061
 Alpha  occ. eigenvalues --   -7.96652  -5.93062  -5.92699  -5.92340  -0.97623
 Alpha  occ. eigenvalues --   -0.87438  -0.77308  -0.75927  -0.72926  -0.69198
 Alpha  occ. eigenvalues --   -0.59520  -0.58070  -0.57325  -0.54542  -0.51844
 Alpha  occ. eigenvalues --   -0.47419  -0.43284  -0.41774  -0.41325  -0.39968
 Alpha  occ. eigenvalues --   -0.38983  -0.38222  -0.37122  -0.36635  -0.33984
 Alpha  occ. eigenvalues --   -0.25878  -0.24992  -0.24246  -0.18755
 Alpha virt. eigenvalues --   -0.02322   0.02451   0.04962   0.06690   0.07625
 Alpha virt. eigenvalues --    0.10822   0.11146   0.12876   0.14096   0.15692
 Alpha virt. eigenvalues --    0.16666   0.17297   0.19858   0.22102   0.24181
 Alpha virt. eigenvalues --    0.25113   0.29164   0.30244   0.32740   0.33697
 Alpha virt. eigenvalues --    0.37007   0.40041   0.42044   0.44325   0.45462
 Alpha virt. eigenvalues --    0.47414   0.51189   0.53530   0.54483   0.55499
 Alpha virt. eigenvalues --    0.57640   0.58140   0.58905   0.60309   0.60856
 Alpha virt. eigenvalues --    0.61474   0.62334   0.63407   0.64391   0.64671
 Alpha virt. eigenvalues --    0.67889   0.70351   0.76239   0.76914   0.79953
 Alpha virt. eigenvalues --    0.81169   0.83236   0.83361   0.84429   0.84982
 Alpha virt. eigenvalues --    0.85884   0.87603   0.87703   0.90043   0.91024
 Alpha virt. eigenvalues --    0.93237   0.94149   0.95722   0.96837   1.00611
 Alpha virt. eigenvalues --    1.02467   1.06448   1.08004   1.11735   1.16209
 Alpha virt. eigenvalues --    1.17056   1.19572   1.24289   1.30484   1.32714
 Alpha virt. eigenvalues --    1.36154   1.37850   1.39757   1.43682   1.44984
 Alpha virt. eigenvalues --    1.45830   1.48578   1.52326   1.53125   1.58416
 Alpha virt. eigenvalues --    1.61113   1.65560   1.77712   1.78310   1.85537
 Alpha virt. eigenvalues --    1.87482   1.88452   1.93517   1.95373   1.98427
 Alpha virt. eigenvalues --    2.01890   2.04211   2.11289   2.16123   2.17221
 Alpha virt. eigenvalues --    2.19907   2.20748   2.22212   2.24845   2.25032
 Alpha virt. eigenvalues --    2.26914   2.28212   2.33016   2.36541   2.43946
 Alpha virt. eigenvalues --    2.50370   2.52199   2.55272   2.62174   2.62923
 Alpha virt. eigenvalues --    2.69242   2.70555   2.74508   2.80583   2.88188
 Alpha virt. eigenvalues --    2.96497   3.01477   3.13165   3.20637   3.95108
 Alpha virt. eigenvalues --    3.97046   4.09980   4.11470   4.14043   4.19318
 Alpha virt. eigenvalues --    4.29610   4.40726   4.44732   4.61908
          Condensed to atoms (all electrons):
               1          2          3          4          5          6
     1  C    4.865169   0.582146  -0.052060  -0.098246   0.349657  -0.029911
     2  C    0.582146   4.887834   0.489328  -0.015227  -0.057390   0.004682
     3  C   -0.052060   0.489328   5.015557   0.572338  -0.082267   0.008932
     4  C   -0.098246  -0.015227   0.572338   4.679410   0.343194  -0.026721
     5  N    0.349657  -0.057390  -0.082267   0.343194   6.865558   0.312342
     6  H   -0.029911   0.004682   0.008932  -0.026721   0.312342   0.396306
     7  H    0.370447  -0.036602   0.004550   0.004610  -0.049455  -0.002227
     8  H   -0.047731   0.369113  -0.037250   0.004156   0.005215  -0.000123
     9  H    0.006258  -0.045259   0.368733  -0.045881   0.005963  -0.000124
    10  C    0.009008   0.008127  -0.087789   0.334801  -0.065628  -0.007953
    11  C    0.000023   0.000195  -0.010403  -0.026257   0.003315  -0.000154
    12  S    0.000256  -0.000229   0.003725  -0.051726  -0.000427   0.008017
    13  C    0.000000  -0.000002   0.000290   0.006200  -0.000149   0.000005
    14  H   -0.000001  -0.000005   0.002503  -0.007471   0.000020  -0.000008
    15  C   -0.000001   0.000001  -0.000050   0.003667   0.000076  -0.000118
    16  H   -0.000000   0.000000  -0.000001  -0.000148   0.000001  -0.000000
    17  H    0.000000  -0.000000   0.000001  -0.000076  -0.000000   0.000001
               7          8          9         10         11         12
     1  C    0.370447  -0.047731   0.006258   0.009008   0.000023   0.000256
     2  C   -0.036602   0.369113  -0.045259   0.008127   0.000195  -0.000229
     3  C    0.004550  -0.037250   0.368733  -0.087789  -0.010403   0.003725
     4  C    0.004610   0.004156  -0.045881   0.334801  -0.026257  -0.051726
     5  N   -0.049455   0.005215   0.005963  -0.065628   0.003315  -0.000427
     6  H   -0.002227  -0.000123  -0.000124  -0.007953  -0.000154   0.008017
     7  H    0.564723  -0.001594  -0.000130  -0.000173   0.000001  -0.000009
     8  H   -0.001594   0.583603  -0.002903  -0.000210  -0.000001   0.000004
     9  H   -0.000130  -0.002903   0.588154  -0.005915   0.002199   0.000017
    10  C   -0.000173  -0.000210  -0.005915   5.272963   0.569333   0.303047
    11  C    0.000001  -0.000001   0.002199   0.569333   4.899756  -0.096808
    12  S   -0.000009   0.000004   0.000017   0.303047  -0.096808  15.405966
    13  C   -0.000000   0.000000  -0.000015  -0.021686   0.496890  -0.082561
    14  H   -0.000000  -0.000000   0.001104  -0.049797   0.363428   0.007509
    15  C   -0.000000  -0.000000   0.000001  -0.055482  -0.052891   0.307594
    16  H    0.000000   0.000000  -0.000000   0.004785  -0.036881   0.007203
    17  H    0.000000   0.000000  -0.000000   0.001884   0.004359  -0.036104
              13         14         15         16         17
     1  C    0.000000  -0.000001  -0.000001  -0.000000   0.000000
     2  C   -0.000002  -0.000005   0.000001   0.000000  -0.000000
     3  C    0.000290   0.002503  -0.000050  -0.000001   0.000001
     4  C    0.006200  -0.007471   0.003667  -0.000148  -0.000076
     5  N   -0.000149   0.000020   0.000076   0.000001  -0.000000
     6  H    0.000005  -0.000008  -0.000118  -0.000000   0.000001
     7  H   -0.000000  -0.000000  -0.000000   0.000000   0.000000
     8  H    0.000000  -0.000000  -0.000000   0.000000   0.000000
     9  H   -0.000015   0.001104   0.000001  -0.000000  -0.000000
    10  C   -0.021686  -0.049797  -0.055482   0.004785   0.001884
    11  C    0.496890   0.363428  -0.052891  -0.036881   0.004359
    12  S   -0.082561   0.007509   0.307594   0.007203  -0.036104
    13  C    4.821679  -0.043829   0.588017   0.360272  -0.021972
    14  H   -0.043829   0.582172   0.006238  -0.002335  -0.000108
    15  C    0.588017   0.006238   5.236319  -0.050046   0.358152
    16  H    0.360272  -0.002335  -0.050046   0.579331  -0.003376
    17  H   -0.021972  -0.000108   0.358152  -0.003376   0.527433
 Mulliken charges:
               1
     1  C    0.044986
     2  C   -0.186710
     3  C   -0.196135
     4  C    0.323375
     5  N   -0.630025
     6  H    0.337055
     7  H    0.145860
     8  H    0.127722
     9  H    0.127800
    10  C   -0.209314
    11  C   -0.116103
    12  S    0.224525
    13  C   -0.103139
    14  H    0.140580
    15  C   -0.341476
    16  H    0.141194
    17  H    0.169806
 Sum of Mulliken charges =  -0.00000
 Mulliken charges with hydrogens summed into heavy atoms:
               1
     1  C    0.190845
     2  C   -0.058988
     3  C   -0.068335
     4  C    0.323375
     5  N   -0.292971
    10  C   -0.209314
    11  C    0.024477
    12  S    0.224525
    13  C    0.038055
    15  C   -0.171671
 Electronic spatial extent (au):  <R**2>=           1750.4357
 Charge=             -0.0000 electrons
 Dipole moment (field-independent basis, Debye):
    X=              0.2481    Y=             -0.7916    Z=              0.6847  Tot=              1.0757
 Quadrupole moment (field-independent basis, Debye-Ang):
   XX=            -57.0639   YY=            -57.4421   ZZ=            -68.9840
   XY=              3.0298   XZ=             -0.4694   YZ=             -1.8378
 Traceless Quadrupole moment (field-independent basis, Debye-Ang):
   XX=              4.0994   YY=              3.7213   ZZ=             -7.8207
   XY=              3.0298   XZ=             -0.4694   YZ=             -1.8378
 Octapole moment (field-independent basis, Debye-Ang**2):
  XXX=             10.4501  YYY=             -3.3914  ZZZ=              1.0794  XYY=             -4.4676
  XXY=             -7.8126  XXZ=              0.9840  XZZ=             -0.3485  YZZ=             -3.1981
  YYZ=              3.4945  XYZ=              7.1844
 Hexadecapole moment (field-independent basis, Debye-Ang**3):
 XXXX=          -1663.0874 YYYY=           -416.1549 ZZZZ=            -97.2369 XXXY=              6.4408
 XXXZ=             -1.3038 YYYX=             20.6154 YYYZ=             -7.4120 ZZZX=             -3.7075
 ZZZY=             -2.3331 XXYY=           -343.5057 XXZZ=           -356.8736 YYZZ=            -93.0391
 XXYZ=             -7.4815 YYXZ=             -0.8001 ZZXY=              1.8547
 N-N= 5.504909629705D+02 E-N=-2.890338005760D+03  KE= 7.571413024329D+02
 1\1\GINC-Q37\Scan\RB3LYP\6-31G(d)\C8H7N1S1\MINGDAZHANG\15-Apr-2022\0\\
 # Opt=ModRedundant B3LYP/6-31G* EmpiricalDispersion=GD3BJ\\Relaxed sca
 n of 5-4-10-12 dihedral at B3LYP-D3(BJ)/6-31G* level\\0,1\C,-3.1294067
 692,0.8534903921,0.1647170329\C,-3.0941537125,-0.5045353797,-0.0809475
 532\C,-1.729450008,-0.8942586063,-0.1263971131\C,-0.9558562101,0.23865
 42334,0.089873504\N,-1.8326915954,1.2919396901,0.2750200553\H,-1.54973
 87275,2.2557590362,0.3697089579\H,-3.9593947013,1.5362478344,0.2704328
 606\H,-3.9544545424,-1.1481441514,-0.2016259316\H,-1.3413810029,-1.893
 5326009,-0.2656430909\C,0.4795270401,0.4046371328,0.13961576\C,1.45021
 01011,-0.3646559616,-0.4602666522\S,1.219764112,1.6969579396,1.0733268
 055\C,2.7764730205,0.0808810552,-0.186808302\H,1.2114929904,-1.2069821
 169,-1.0993444286\C,2.8175449886,1.1907127857,0.6101829811\H,3.6648999
 789,-0.3987323568,-0.5828436942\H,3.6802620377,1.742484074,0.956430808
 4\\Version=ES64L-G16RevA.03\State=1-A\HF=-762.0176008,-762.0174078,-76
 2.0168094,-762.0158593,-762.0147193,-762.013654,-762.0130244,-762.0131
 29,-762.0138721,-762.0149144,-762.0159647,-762.0168169,-762.0173462,-7
 62.0175046,-762.0173615,-762.0171595,-762.0172075,-762.017428,-762.017
 4937,-762.0172198,-762.0165802,-762.0156487,-762.0145753,-762.0135897,
 -762.0130133,-762.0131508,-762.0139589,-762.0150829,-762.0161872,-762.
 0170396,-762.0175115,-762.0175855,-762.0173747,-762.0171455,-762.01719
 76,-762.0174584,-762.0176012\RMSD=7.464e-09,8.595e-09,4.961e-09,6.601e
 -09,3.049e-09,6.758e-09,4.027e-09,5.267e-09,7.976e-09,5.099e-09,6.192e
 -09,8.568e-09,9.820e-09,4.025e-09,6.400e-09,4.954e-09,3.434e-09,6.209e
 -09,9.580e-09,5.241e-09,8.058e-09,4.490e-09,4.866e-09,2.543e-09,4.344e
 -09,5.336e-09,4.345e-09,4.129e-09,2.522e-09,9.775e-09,3.186e-09,6.137e
 -09,3.923e-09,3.994e-09,6.313e-09,3.692e-09,8.226e-09\PG=C01 [X(C8H7N1
 S1)]\\@


 WE THE UNWILLING
 LED BY THE UNQUALIFIED
 HAVE BEEN DOING THE UNBELIEVABLE SO LONG WITH SO LITTLE
 THAT WE NOW ATTEMPT THE IMPOSSIBLE WITH NOTHING.

                                    -- ANONYMOUS
 Job cpu time:       0 days  5 hours 51 minutes 33.9 seconds.
 Elapsed time:       0 days  0 hours 12 minutes 52.5 seconds.
 File lengths (MBytes):  RWF=     25 Int=      0 D2E=      0 Chk=      7 Scr=      1
 Normal termination of Gaussian 16 at Fri Apr 15 10:23:41 2022.
