 Entering Gaussian System, Link 0=g16
 Input=mol_sp_vaccum.gjf
 Output=mol_sp_vaccum.out
 Initial command:
 /home/gaussian/g16/l1.exe "/scratch/Gau-1516.inp" -scrdir="/scratch/"
 Entering Link 1 = /home/gaussian/g16/l1.exe PID=      1518.
  
 Copyright (c) 1988-2019, Gaussian, Inc.  All Rights Reserved.
  
 This is part of the Gaussian(R) 16 program.  It is based on
 the Gaussian(R) 09 system (copyright 2009, Gaussian, Inc.),
 the Gaussian(R) 03 system (copyright 2003, Gaussian, Inc.),
 the Gaussian(R) 98 system (copyright 1998, Gaussian, Inc.),
 the Gaussian(R) 94 system (copyright 1995, Gaussian, Inc.),
 the Gaussian 92(TM) system (copyright 1992, Gaussian, Inc.),
 the Gaussian 90(TM) system (copyright 1990, Gaussian, Inc.),
 the Gaussian 88(TM) system (copyright 1988, Gaussian, Inc.),
 the Gaussian 86(TM) system (copyright 1986, Carnegie Mellon
 University), and the Gaussian 82(TM) system (copyright 1983,
 Carnegie Mellon University). Gaussian is a federally registered
 trademark of Gaussian, Inc.
  
 This software contains proprietary and confidential information,
 including trade secrets, belonging to Gaussian, Inc.
  
 This software is provided under written license and may be
 used, copied, transmitted, or stored only in accord with that
 written license.
  
 The following legend is applicable only to US Government
 contracts under FAR:
  
                    RESTRICTED RIGHTS LEGEND
  
 Use, reproduction and disclosure by the US Government is
 subject to restrictions as set forth in subparagraphs (a)
 and (c) of the Commercial Computer Software - Restricted
 Rights clause in FAR 52.227-19.
  
 Gaussian, Inc.
 340 Quinnipiac St., Bldg. 40, Wallingford CT 06492
  
  
 ---------------------------------------------------------------
 Warning -- This program may not be used in any manner that
 competes with the business of Gaussian, Inc. or will provide
 assistance to any competitor of Gaussian, Inc.  The licensee
 of this program is prohibited from giving any competitor of
 Gaussian, Inc. access to this program.  By using this program,
 the user acknowledges that Gaussian, Inc. is engaged in the
 business of creating and licensing software in the field of
 computational chemistry and represents and warrants to the
 licensee that it is not a competitor of Gaussian, Inc. and that
 it will not use this program in any manner prohibited above.
 ---------------------------------------------------------------
  

 Cite this work as:
 Gaussian 16, Revision C.01,
 M. J. Frisch, G. W. Trucks, H. B. Schlegel, G. E. Scuseria, 
 M. A. Robb, J. R. Cheeseman, G. Scalmani, V. Barone, 
 G. A. Petersson, H. Nakatsuji, X. Li, M. Caricato, A. V. Marenich, 
 J. Bloino, B. G. Janesko, R. Gomperts, B. Mennucci, H. P. Hratchian, 
 J. V. Ortiz, A. F. Izmaylov, J. L. Sonnenberg, D. Williams-Young, 
 F. Ding, F. Lipparini, F. Egidi, J. Goings, B. Peng, A. Petrone, 
 T. Henderson, D. Ranasinghe, V. G. Zakrzewski, J. Gao, N. Rega, 
 G. Zheng, W. Liang, M. Hada, M. Ehara, K. Toyota, R. Fukuda, 
 J. Hasegawa, M. Ishida, T. Nakajima, Y. Honda, O. Kitao, H. Nakai, 
 T. Vreven, K. Throssell, J. A. Montgomery, Jr., J. E. Peralta, 
 F. Ogliaro, M. J. Bearpark, J. J. Heyd, E. N. Brothers, K. N. Kudin, 
 V. N. Staroverov, T. A. Keith, R. Kobayashi, J. Normand, 
 K. Raghavachari, A. P. Rendell, J. C. Burant, S. S. Iyengar, 
 J. Tomasi, M. Cossi, J. M. Millam, M. Klene, C. Adamo, R. Cammi, 
 J. W. Ochterski, R. L. Martin, K. Morokuma, O. Farkas, 
 J. B. Foresman, and D. J. Fox, Gaussian, Inc., Wallingford CT, 2019.
 
 ******************************************
 Gaussian 16:  ES64L-G16RevC.01  3-Jul-2019
                15-Apr-2022 
 ******************************************
 %CPU=0-7
 SetSPE:  set environment variable "MP_BIND" = "yes"
 SetSPE:  set environment variable "MP_BLIST" = "0,1,2,3,4,5,6,7"
 Will use up to    8 processors via shared memory.
 %mem=8GB
 %chk=mol_sp_vaccum.chk
 -----------------
 #P B3LYP/def2TZVP
 -----------------
 1/38=1,172=1/1;
 2/12=2,17=6,18=5,40=1/2;
 3/5=44,7=101,11=2,25=1,30=1,74=-5/1,2,3;
 4//1;
 5/5=2,38=5/2;
 6/7=2,8=2,9=2,10=2,28=1/1;
 99/5=1,9=1/99;
 Leave Link    1 at Fri Apr 15 12:00:05 2022, MaxMem=  1073741824 cpu:               0.1 elap:               0.0
 (Enter /home/gaussian/g16/l101.exe)
 ---------------------------
 B3LYP/def2-TZVP with vaccum
 ---------------------------
 Symbolic Z-matrix:
 Charge =  0 Multiplicity = 1
 C                    -3.00145  -0.72776   0.20243 
 C                    -3.18117   0.58699  -0.17812 
 C                    -1.89422   1.17316  -0.30701 
 C                    -0.95132   0.20172   0.00215 
 N                    -1.65051  -0.95334   0.3011 
 H                    -1.22463  -1.80217   0.64177 
 H                    -3.71425  -1.51238   0.40847 
 H                    -4.13211   1.06951  -0.35646 
 H                    -1.66572   2.18118  -0.62354 
 C                     0.4928    0.26544   0.03382 
 C                     1.29635   1.36446   0.23286 
 S                     1.47729  -1.16702  -0.22967 
 C                     2.68959   1.06428   0.18777 
 H                     0.89371   2.35086   0.43235 
 C                     2.94744  -0.25941  -0.03529 
 H                     3.46827   1.80512   0.33234 
 H                     3.90358  -0.75974  -0.09953 
 
 ITRead=  0  0  0  0  0  0  0  0  0  0  0  0  0  0  0  0  0
 MicOpt= -1 -1 -1 -1 -1 -1 -1 -1 -1 -1 -1 -1 -1 -1 -1 -1 -1
 NAtoms=     17 NQM=       17 NQMF=       0 NMMI=      0 NMMIF=      0
                NMic=       0 NMicF=      0.
                    Isotopes and Nuclear Properties:
 (Nuclear quadrupole moments (NQMom) in fm**2, nuclear magnetic moments (NMagM)
  in nuclear magnetons)

  Atom         1           2           3           4           5           6           7           8           9          10
 IAtWgt=          12          12          12          12          14           1           1           1           1          12
 AtmWgt=  12.0000000  12.0000000  12.0000000  12.0000000  14.0030740   1.0078250   1.0078250   1.0078250   1.0078250  12.0000000
 NucSpn=           0           0           0           0           2           1           1           1           1           0
 AtZEff=  -0.0000000  -0.0000000  -0.0000000  -0.0000000  -0.0000000  -0.0000000  -0.0000000  -0.0000000  -0.0000000  -0.0000000
 NQMom=    0.0000000   0.0000000   0.0000000   0.0000000   2.0440000   0.0000000   0.0000000   0.0000000   0.0000000   0.0000000
 NMagM=    0.0000000   0.0000000   0.0000000   0.0000000   0.4037610   2.7928460   2.7928460   2.7928460   2.7928460   0.0000000
 AtZNuc=   6.0000000   6.0000000   6.0000000   6.0000000   7.0000000   1.0000000   1.0000000   1.0000000   1.0000000   6.0000000

  Atom        11          12          13          14          15          16          17
 IAtWgt=          12          32          12           1          12           1           1
 AtmWgt=  12.0000000  31.9720718  12.0000000   1.0078250  12.0000000   1.0078250   1.0078250
 NucSpn=           0           0           0           1           0           1           1
 AtZEff=  -0.0000000  -0.0000000  -0.0000000  -0.0000000  -0.0000000  -0.0000000  -0.0000000
 NQMom=    0.0000000   0.0000000   0.0000000   0.0000000   0.0000000   0.0000000   0.0000000
 NMagM=    0.0000000   0.0000000   0.0000000   2.7928460   0.0000000   2.7928460   2.7928460
 AtZNuc=   6.0000000  16.0000000   6.0000000   1.0000000   6.0000000   1.0000000   1.0000000
 Leave Link  101 at Fri Apr 15 12:00:05 2022, MaxMem=  1073741824 cpu:               0.3 elap:               0.1
 (Enter /home/gaussian/g16/l202.exe)
                          Input orientation:                          
 ---------------------------------------------------------------------
 Center     Atomic      Atomic             Coordinates (Angstroms)
 Number     Number       Type             X           Y           Z
 ---------------------------------------------------------------------
      1          6           0       -3.001454   -0.727759    0.202431
      2          6           0       -3.181173    0.586994   -0.178118
      3          6           0       -1.894215    1.173164   -0.307008
      4          6           0       -0.951322    0.201719    0.002152
      5          7           0       -1.650506   -0.953338    0.301096
      6          1           0       -1.224633   -1.802167    0.641769
      7          1           0       -3.714253   -1.512378    0.408469
      8          1           0       -4.132105    1.069513   -0.356456
      9          1           0       -1.665715    2.181184   -0.623539
     10          6           0        0.492796    0.265440    0.033816
     11          6           0        1.296351    1.364458    0.232861
     12         16           0        1.477288   -1.167021   -0.229673
     13          6           0        2.689588    1.064282    0.187768
     14          1           0        0.893710    2.350860    0.432346
     15          6           0        2.947441   -0.259413   -0.035287
     16          1           0        3.468266    1.805124    0.332336
     17          1           0        3.903583   -0.759739   -0.099531
 ---------------------------------------------------------------------
                    Distance matrix (angstroms):
                    1          2          3          4          5
     1  C    0.000000
     2  C    1.380468   0.000000
     3  C    2.258100   1.420024   0.000000
     4  C    2.259885   2.270059   1.388644   0.000000
     5  N    1.373201   2.223783   2.225128   1.382889   0.000000
     6  H    2.122372   3.195051   3.193918   2.121171   1.008928
     7  H    1.079889   2.244019   3.322135   3.276738   2.140819
     8  H    2.195658   1.081157   2.240835   3.316481   3.268430
     9  H    3.305809   2.244205   1.080976   2.195479   3.268090
    10  C    3.636572   3.694098   2.576421   1.445870   2.480041
    11  C    4.780107   4.563066   3.241568   2.541107   3.749773
    12  S    4.520929   4.978000   4.104812   2.797381   3.179697
    13  C    5.966539   5.901484   4.611714   3.746291   4.787489
    14  H    4.970217   4.482026   3.115468   2.864964   4.172288
    15  C    5.972036   6.188434   5.056455   3.926117   4.662167
    16  H    6.949075   6.779339   5.437310   4.713034   5.814801
    17  H    6.911710   7.212048   6.115032   4.950237   5.571884
                    6          7          8          9         10
     6  H    0.000000
     7  H    2.517263   0.000000
     8  H    4.206708   2.725045   0.000000
     9  H    4.202695   4.347867   2.718497   0.000000
    10  C    2.755752   4.582604   4.710473   2.959960   0.000000
    11  C    4.068179   5.780413   5.468311   3.189717   1.375922
    12  S    2.909158   5.242003   6.040153   4.609130   1.758009
    13  C    4.872758   6.906306   6.843369   4.568846   2.342594
    14  H    4.666784   6.013194   5.246225   2.773867   2.160679
    15  C    4.499411   6.793012   7.210351   5.252025   2.511081
    16  H    5.927191   7.912028   7.666890   5.235731   3.363505
    17  H    5.285336   7.671763   8.245269   6.319865   3.564020
                   11         12         13         14         15
    11  C    0.000000
    12  S    2.579741   0.000000
    13  C    1.425920   2.573449   0.000000
    14  H    1.083929   3.626888   2.222674   0.000000
    15  C    2.331300   1.738645   1.366898   3.354104   0.000000
    16  H    2.218400   3.621256   1.084475   2.633661   2.160722
    17  H    3.379402   2.463681   2.209836   4.360969   1.081046
                   16         17
    16  H    0.000000
    17  H    2.637145   0.000000
 Stoichiometry    C8H7NS
 Framework group  C1[X(C8H7NS)]
 Deg. of freedom    45
 Full point group                 C1      NOp   1
 Largest Abelian subgroup         C1      NOp   1
 Largest concise Abelian subgroup C1      NOp   1
                         Standard orientation:                         
 ---------------------------------------------------------------------
 Center     Atomic      Atomic             Coordinates (Angstroms)
 Number     Number       Type             X           Y           Z
 ---------------------------------------------------------------------
      1          6           0       -3.001454   -0.727759    0.202431
      2          6           0       -3.181173    0.586994   -0.178118
      3          6           0       -1.894215    1.173164   -0.307008
      4          6           0       -0.951322    0.201719    0.002152
      5          7           0       -1.650506   -0.953338    0.301096
      6          1           0       -1.224633   -1.802167    0.641769
      7          1           0       -3.714253   -1.512378    0.408469
      8          1           0       -4.132105    1.069513   -0.356456
      9          1           0       -1.665715    2.181184   -0.623539
     10          6           0        0.492796    0.265440    0.033816
     11          6           0        1.296351    1.364458    0.232861
     12         16           0        1.477288   -1.167021   -0.229673
     13          6           0        2.689588    1.064282    0.187768
     14          1           0        0.893710    2.350860    0.432346
     15          6           0        2.947441   -0.259413   -0.035287
     16          1           0        3.468266    1.805124    0.332336
     17          1           0        3.903583   -0.759739   -0.099531
 ---------------------------------------------------------------------
 Rotational constants (GHZ):           3.3768104           0.7468516           0.6228095
 Leave Link  202 at Fri Apr 15 12:00:05 2022, MaxMem=  1073741824 cpu:               0.1 elap:               0.0
 (Enter /home/gaussian/g16/l301.exe)
 Standard basis: def2TZVP (5D, 7F)
 Ernie: Thresh=  0.10000D-02 Tol=  0.10000D-05 Strict=F.
 There are   408 symmetry adapted cartesian basis functions of A   symmetry.
 There are   358 symmetry adapted basis functions of A   symmetry.
   358 basis functions,   584 primitive gaussians,   408 cartesian basis functions
    39 alpha electrons       39 beta electrons
       nuclear repulsion energy       550.5472219926 Hartrees.
 IExCor=  402 DFT=T Ex+Corr=B3LYP ExCW=0 ScaHFX=  0.200000
 ScaDFX=  0.800000  0.720000  1.000000  0.810000 ScalE2=  1.000000  1.000000
 IRadAn=      5 IRanWt=     -1 IRanGd=            0 ICorTp=0 IEmpDi=  4
 NAtoms=   17 NActive=   17 NUniq=   17 SFac= 1.00D+00 NAtFMM=   60 NAOKFM=F Big=F
 Integral buffers will be    131072 words long.
 Raffenetti 2 integral format.
 Two-electron integral symmetry is turned on.
 Leave Link  301 at Fri Apr 15 12:00:05 2022, MaxMem=  1073741824 cpu:               0.2 elap:               0.0
 (Enter /home/gaussian/g16/l302.exe)
 NPDir=0 NMtPBC=     1 NCelOv=     1 NCel=       1 NClECP=     1 NCelD=      1
         NCelK=      1 NCelE2=     1 NClLst=     1 CellRange=     0.0.
 One-electron integrals computed using PRISM.
 One-electron integral symmetry used in STVInt
   1 Symmetry operations used in ECPInt.
 ECPInt:  NShTT=    9870 NPrTT=   31380 LenC2=    9400 LenP2D=   22943.
 LDataN:  DoStor=T MaxTD1= 6 Len=  172
 NBasis=   358 RedAO= T EigKep=  3.11D-05  NBF=   358
 NBsUse=   358 1.00D-06 EigRej= -1.00D+00 NBFU=   358
 Precomputing XC quadrature grid using
 IXCGrd= 4 IRadAn=           5 IRanWt=          -1 IRanGd=           0 AccXCQ= 0.00D+00.
 Generated NRdTot=       0 NPtTot=           0 NUsed=           0 NTot=          32
 NSgBfM=   405   405   405   405   405 MxSgAt=    17 MxSgA2=    17.
 Leave Link  302 at Fri Apr 15 12:00:05 2022, MaxMem=  1073741824 cpu:               1.6 elap:               0.2
 (Enter /home/gaussian/g16/l303.exe)
 DipDrv:  MaxL=1.
 Leave Link  303 at Fri Apr 15 12:00:05 2022, MaxMem=  1073741824 cpu:               0.2 elap:               0.0
 (Enter /home/gaussian/g16/l401.exe)
 ExpMin= 9.52D-02 ExpMax= 6.07D+04 ExpMxC= 2.07D+03 IAcc=3 IRadAn=         5 AccDes= 0.00D+00
 Harris functional with IExCor=  402 and IRadAn=       5 diagonalized for initial guess.
 HarFok:  IExCor=  402 AccDes= 0.00D+00 IRadAn=         5 IDoV= 1 UseB2=F ITyADJ=14
 ICtDFT=  3500011 ScaDFX=  1.000000  1.000000  1.000000  1.000000
 FoFCou: FMM=F IPFlag=           0 FMFlag=      100000 FMFlg1=           0
         NFxFlg=           0 DoJE=T BraDBF=F KetDBF=T FulRan=T
         wScrn=  0.000000 ICntrl=       500 IOpCl=  0 I1Cent=   200000004 NGrid=           0
         NMat0=    1 NMatS0=      1 NMatT0=    0 NMatD0=    1 NMtDS0=    0 NMtDT0=    0
 Petite list used in FoFCou.
 Harris En= -762.155260395593    
 JPrj=0 DoOrth=F DoCkMO=F.
 Leave Link  401 at Fri Apr 15 12:00:07 2022, MaxMem=  1073741824 cpu:              14.7 elap:               1.9
 (Enter /home/gaussian/g16/l502.exe)
 Integral symmetry usage will be decided dynamically.
 Closed shell SCF:
 Using DIIS extrapolation, IDIIS=  1040.
 NGot=  1073741824 LenX=  1073401636 LenY=  1073234731
 Requested convergence on RMS density matrix=1.00D-08 within 128 cycles.
 Requested convergence on MAX density matrix=1.00D-06.
 Requested convergence on             energy=1.00D-06.
 No special actions if energy rises.
 Fock matrices will be formed incrementally for  20 cycles.
 Integral accuracy reduced to 1.0D-05 until final iterations.

 Cycle   1  Pass 0  IDiag  1:
 FoFJK:  IHMeth= 1 ICntrl=       0 DoSepK=F KAlg= 0 I1Cent=           0 FoldK=F
 IRaf= 910000000 NMat=       1 IRICut=       1 DoRegI=T DoRafI=F ISym2E= 0 IDoP0=0 IntGTp=1.
 FoFCou: FMM=F IPFlag=           0 FMFlag=      100000 FMFlg1=           0
         NFxFlg=           0 DoJE=F BraDBF=F KetDBF=F FulRan=T
         wScrn=  0.000000 ICntrl=         0 IOpCl=  0 I1Cent=           0 NGrid=           0
         NMat0=    1 NMatS0=      1 NMatT0=    0 NMatD0=    1 NMtDS0=    0 NMtDT0=    0
 Symmetry not used in FoFCou.
 E= -761.767868934622    
 DIIS: error= 2.15D-02 at cycle   1 NSaved=   1.
 NSaved= 1 IEnMin= 1 EnMin= -761.767868934622     IErMin= 1 ErrMin= 2.15D-02
 ErrMax= 2.15D-02  0.00D+00 EMaxC= 1.00D-01 BMatC= 3.92D-01 BMatP= 3.92D-01
 IDIUse=3 WtCom= 7.85D-01 WtEn= 2.15D-01
 Coeff-Com:  0.100D+01
 Coeff-En:   0.100D+01
 Coeff:      0.100D+01
 Gap=     0.183 Goal=   None    Shift=    0.000
 GapD=    0.183 DampG=1.000 DampE=0.500 DampFc=0.5000 IDamp=-1.
 Damping current iteration by 5.00D-01
 RMSDP=6.67D-03 MaxDP=4.22D-01              OVMax= 3.35D-01

 Cycle   2  Pass 0  IDiag  1:
 RMSU=  3.34D-03    CP:  9.97D-01
 E= -761.842038180867     Delta-E=       -0.074169246245 Rises=F Damp=T
 DIIS: error= 1.21D-02 at cycle   2 NSaved=   2.
 NSaved= 2 IEnMin= 2 EnMin= -761.842038180867     IErMin= 2 ErrMin= 1.21D-02
 ErrMax= 1.21D-02  0.00D+00 EMaxC= 1.00D-01 BMatC= 6.11D-02 BMatP= 3.92D-01
 IDIUse=3 WtCom= 8.79D-01 WtEn= 1.21D-01
 Coeff-Com:  0.222D+00 0.778D+00
 Coeff-En:   0.410D+00 0.590D+00
 Coeff:      0.245D+00 0.755D+00
 Gap=     0.205 Goal=   None    Shift=    0.000
 RMSDP=2.87D-03 MaxDP=1.77D-01 DE=-7.42D-02 OVMax= 3.60D-01

 Cycle   3  Pass 0  IDiag  1:
 RMSU=  1.24D-03    CP:  9.79D-01  2.28D-01
 E= -762.126011587489     Delta-E=       -0.283973406622 Rises=F Damp=F
 DIIS: error= 8.49D-03 at cycle   3 NSaved=   3.
 NSaved= 3 IEnMin= 3 EnMin= -762.126011587489     IErMin= 3 ErrMin= 8.49D-03
 ErrMax= 8.49D-03  0.00D+00 EMaxC= 1.00D-01 BMatC= 2.66D-02 BMatP= 6.11D-02
 IDIUse=3 WtCom= 9.15D-01 WtEn= 8.49D-02
 Coeff-Com:  0.548D-01 0.393D+00 0.552D+00
 Coeff-En:   0.000D+00 0.000D+00 0.100D+01
 Coeff:      0.502D-01 0.359D+00 0.590D+00
 Gap=     0.163 Goal=   None    Shift=    0.000
 RMSDP=7.97D-04 MaxDP=2.75D-02 DE=-2.84D-01 OVMax= 9.07D-02

 Cycle   4  Pass 0  IDiag  1:
 RMSU=  6.49D-04    CP:  9.82D-01  3.22D-01  7.27D-01
 E= -762.147284940379     Delta-E=       -0.021273352890 Rises=F Damp=F
 DIIS: error= 4.30D-03 at cycle   4 NSaved=   4.
 NSaved= 4 IEnMin= 4 EnMin= -762.147284940379     IErMin= 4 ErrMin= 4.30D-03
 ErrMax= 4.30D-03  0.00D+00 EMaxC= 1.00D-01 BMatC= 8.96D-03 BMatP= 2.66D-02
 IDIUse=3 WtCom= 9.57D-01 WtEn= 4.30D-02
 Coeff-Com: -0.281D-02 0.853D-01 0.380D+00 0.538D+00
 Coeff-En:   0.000D+00 0.000D+00 0.265D+00 0.735D+00
 Coeff:     -0.269D-02 0.817D-01 0.375D+00 0.546D+00
 Gap=     0.160 Goal=   None    Shift=    0.000
 RMSDP=2.60D-04 MaxDP=8.19D-03 DE=-2.13D-02 OVMax= 3.17D-02

 Cycle   5  Pass 0  IDiag  1:
 RMSU=  1.52D-04    CP:  9.82D-01  3.11D-01  8.08D-01  7.21D-01
 E= -762.156179751419     Delta-E=       -0.008894811040 Rises=F Damp=F
 DIIS: error= 4.75D-04 at cycle   5 NSaved=   5.
 NSaved= 5 IEnMin= 5 EnMin= -762.156179751419     IErMin= 5 ErrMin= 4.75D-04
 ErrMax= 4.75D-04  0.00D+00 EMaxC= 1.00D-01 BMatC= 2.84D-04 BMatP= 8.96D-03
 IDIUse=3 WtCom= 9.95D-01 WtEn= 4.75D-03
 Coeff-Com: -0.289D-02 0.554D-02 0.125D+00 0.245D+00 0.628D+00
 Coeff-En:   0.000D+00 0.000D+00 0.000D+00 0.000D+00 0.100D+01
 Coeff:     -0.288D-02 0.552D-02 0.124D+00 0.243D+00 0.630D+00
 Gap=     0.161 Goal=   None    Shift=    0.000
 RMSDP=7.23D-05 MaxDP=4.00D-03 DE=-8.89D-03 OVMax= 5.11D-03

 Cycle   6  Pass 0  IDiag  1:
 RMSU=  4.76D-05    CP:  9.81D-01  3.04D-01  8.24D-01  7.08D-01  7.09D-01
 E= -762.156398182032     Delta-E=       -0.000218430613 Rises=F Damp=F
 DIIS: error= 3.36D-04 at cycle   6 NSaved=   6.
 NSaved= 6 IEnMin= 6 EnMin= -762.156398182032     IErMin= 6 ErrMin= 3.36D-04
 ErrMax= 3.36D-04  0.00D+00 EMaxC= 1.00D-01 BMatC= 6.03D-05 BMatP= 2.84D-04
 IDIUse=3 WtCom= 9.97D-01 WtEn= 3.36D-03
 Coeff-Com: -0.137D-02-0.390D-02 0.501D-01 0.112D+00 0.375D+00 0.469D+00
 Coeff-En:   0.000D+00 0.000D+00 0.000D+00 0.000D+00 0.108D+00 0.892D+00
 Coeff:     -0.136D-02-0.389D-02 0.499D-01 0.111D+00 0.374D+00 0.470D+00
 Gap=     0.161 Goal=   None    Shift=    0.000
 RMSDP=2.50D-05 MaxDP=9.96D-04 DE=-2.18D-04 OVMax= 2.83D-03

 Cycle   7  Pass 0  IDiag  1:
 RMSU=  2.07D-05    CP:  9.81D-01  3.03D-01  8.21D-01  7.13D-01  7.54D-01
                    CP:  7.81D-01
 E= -762.156449457843     Delta-E=       -0.000051275811 Rises=F Damp=F
 DIIS: error= 1.66D-04 at cycle   7 NSaved=   7.
 NSaved= 7 IEnMin= 7 EnMin= -762.156449457843     IErMin= 7 ErrMin= 1.66D-04
 ErrMax= 1.66D-04  0.00D+00 EMaxC= 1.00D-01 BMatC= 6.87D-06 BMatP= 6.03D-05
 IDIUse=3 WtCom= 9.98D-01 WtEn= 1.66D-03
 Coeff-Com: -0.160D-03-0.297D-02 0.161D-01 0.382D-01 0.141D+00 0.287D+00
 Coeff-Com:  0.520D+00
 Coeff-En:   0.000D+00 0.000D+00 0.000D+00 0.000D+00 0.000D+00 0.994D-01
 Coeff-En:   0.901D+00
 Coeff:     -0.160D-03-0.296D-02 0.161D-01 0.382D-01 0.141D+00 0.287D+00
 Coeff:      0.521D+00
 Gap=     0.161 Goal=   None    Shift=    0.000
 RMSDP=1.05D-05 MaxDP=2.73D-04 DE=-5.13D-05 OVMax= 1.19D-03

 Cycle   8  Pass 0  IDiag  1:
 RMSU=  7.12D-06    CP:  9.81D-01  3.02D-01  8.22D-01  7.15D-01  7.36D-01
                    CP:  8.12D-01  6.82D-01
 E= -762.156456272166     Delta-E=       -0.000006814323 Rises=F Damp=F
 DIIS: error= 5.12D-05 at cycle   8 NSaved=   8.
 NSaved= 8 IEnMin= 8 EnMin= -762.156456272166     IErMin= 8 ErrMin= 5.12D-05
 ErrMax= 5.12D-05  0.00D+00 EMaxC= 1.00D-01 BMatC= 8.40D-07 BMatP= 6.87D-06
 IDIUse=1 WtCom= 1.00D+00 WtEn= 0.00D+00
 Coeff-Com:  0.248D-03-0.145D-02 0.206D-02 0.565D-02 0.254D-01 0.987D-01
 Coeff-Com:  0.309D+00 0.560D+00
 Coeff:      0.248D-03-0.145D-02 0.206D-02 0.565D-02 0.254D-01 0.987D-01
 Coeff:      0.309D+00 0.560D+00
 Gap=     0.161 Goal=   None    Shift=    0.000
 RMSDP=3.20D-06 MaxDP=1.22D-04 DE=-6.81D-06 OVMax= 3.93D-04

 Initial convergence to 1.0D-05 achieved.  Increase integral accuracy.
 Cycle   9  Pass 1  IDiag  1:
 E= -762.156446387833     Delta-E=        0.000009884333 Rises=F Damp=F
 DIIS: error= 1.66D-04 at cycle   1 NSaved=   1.
 NSaved= 1 IEnMin= 1 EnMin= -762.156446387833     IErMin= 1 ErrMin= 1.66D-04
 ErrMax= 1.66D-04  0.00D+00 EMaxC= 1.00D-01 BMatC= 4.17D-06 BMatP= 4.17D-06
 IDIUse=3 WtCom= 9.98D-01 WtEn= 1.66D-03
 Coeff-Com:  0.100D+01
 Coeff-En:   0.100D+01
 Coeff:      0.100D+01
 Gap=     0.161 Goal=   None    Shift=    0.000
 RMSDP=3.20D-06 MaxDP=1.22D-04 DE= 9.88D-06 OVMax= 4.14D-04

 Cycle  10  Pass 1  IDiag  1:
 RMSU=  1.52D-04    CP:  1.00D+00
 E= -762.156447570833     Delta-E=       -0.000001183000 Rises=F Damp=F
 DIIS: error= 3.00D-05 at cycle   2 NSaved=   2.
 NSaved= 2 IEnMin= 2 EnMin= -762.156447570833     IErMin= 2 ErrMin= 3.00D-05
 ErrMax= 3.00D-05  0.00D+00 EMaxC= 1.00D-01 BMatC= 4.61D-07 BMatP= 4.17D-06
 IDIUse=1 WtCom= 1.00D+00 WtEn= 0.00D+00
 Coeff-Com:  0.132D+00 0.868D+00
 Coeff:      0.132D+00 0.868D+00
 Gap=     0.161 Goal=   None    Shift=    0.000
 RMSDP=5.50D-06 MaxDP=1.48D-04 DE=-1.18D-06 OVMax= 7.52D-04

 Cycle  11  Pass 1  IDiag  1:
 RMSU=  5.18D-06    CP:  1.00D+00  1.01D+00
 E= -762.156446633351     Delta-E=        0.000000937482 Rises=F Damp=F
 DIIS: error= 5.82D-05 at cycle   3 NSaved=   3.
 NSaved= 3 IEnMin= 2 EnMin= -762.156447570833     IErMin= 2 ErrMin= 3.00D-05
 ErrMax= 5.82D-05  0.00D+00 EMaxC= 1.00D-01 BMatC= 1.34D-06 BMatP= 4.61D-07
 IDIUse=1 WtCom= 1.00D+00 WtEn= 0.00D+00
 Coeff-Com: -0.153D-02 0.632D+00 0.370D+00
 Coeff:     -0.153D-02 0.632D+00 0.370D+00
 Gap=     0.161 Goal=   None    Shift=    0.000
 RMSDP=3.27D-06 MaxDP=9.95D-05 DE= 9.37D-07 OVMax= 4.64D-04

 Cycle  12  Pass 1  IDiag  1:
 RMSU=  8.01D-07    CP:  1.00D+00  1.01D+00  3.92D-01
 E= -762.156448054118     Delta-E=       -0.000001420766 Rises=F Damp=F
 DIIS: error= 5.97D-06 at cycle   4 NSaved=   4.
 NSaved= 4 IEnMin= 4 EnMin= -762.156448054118     IErMin= 4 ErrMin= 5.97D-06
 ErrMax= 5.97D-06  0.00D+00 EMaxC= 1.00D-01 BMatC= 1.07D-08 BMatP= 4.61D-07
 IDIUse=1 WtCom= 1.00D+00 WtEn= 0.00D+00
 Coeff-Com: -0.210D-02 0.405D+00 0.241D+00 0.356D+00
 Coeff:     -0.210D-02 0.405D+00 0.241D+00 0.356D+00
 Gap=     0.161 Goal=   None    Shift=    0.000
 RMSDP=3.15D-07 MaxDP=1.15D-05 DE=-1.42D-06 OVMax= 3.86D-05

 Cycle  13  Pass 1  IDiag  1:
 RMSU=  2.36D-07    CP:  1.00D+00  1.01D+00  3.97D-01  7.43D-01
 E= -762.156448065360     Delta-E=       -0.000000011243 Rises=F Damp=F
 DIIS: error= 5.52D-07 at cycle   5 NSaved=   5.
 NSaved= 5 IEnMin= 5 EnMin= -762.156448065360     IErMin= 5 ErrMin= 5.52D-07
 ErrMax= 5.52D-07  0.00D+00 EMaxC= 1.00D-01 BMatC= 2.22D-10 BMatP= 1.07D-08
 IDIUse=1 WtCom= 1.00D+00 WtEn= 0.00D+00
 Coeff-Com: -0.117D-02 0.211D+00 0.126D+00 0.205D+00 0.460D+00
 Coeff:     -0.117D-02 0.211D+00 0.126D+00 0.205D+00 0.460D+00
 Gap=     0.161 Goal=   None    Shift=    0.000
 RMSDP=4.82D-08 MaxDP=2.31D-06 DE=-1.12D-08 OVMax= 4.80D-06

 Cycle  14  Pass 1  IDiag  1:
 RMSU=  4.43D-08    CP:  1.00D+00  1.01D+00  3.95D-01  7.55D-01  9.73D-01
 E= -762.156448065561     Delta-E=       -0.000000000201 Rises=F Damp=F
 DIIS: error= 1.23D-07 at cycle   6 NSaved=   6.
 NSaved= 6 IEnMin= 6 EnMin= -762.156448065561     IErMin= 6 ErrMin= 1.23D-07
 ErrMax= 1.23D-07  0.00D+00 EMaxC= 1.00D-01 BMatC= 1.23D-11 BMatP= 2.22D-10
 IDIUse=1 WtCom= 1.00D+00 WtEn= 0.00D+00
 Coeff-Com: -0.281D-03 0.477D-01 0.284D-01 0.507D-01 0.219D+00 0.654D+00
 Coeff:     -0.281D-03 0.477D-01 0.284D-01 0.507D-01 0.219D+00 0.654D+00
 Gap=     0.161 Goal=   None    Shift=    0.000
 RMSDP=1.79D-08 MaxDP=6.86D-07 DE=-2.01D-10 OVMax= 1.84D-06

 Cycle  15  Pass 1  IDiag  1:
 RMSU=  1.48D-08    CP:  1.00D+00  1.01D+00  3.96D-01  7.58D-01  9.99D-01
                    CP:  9.27D-01
 E= -762.156448065570     Delta-E=       -0.000000000008 Rises=F Damp=F
 DIIS: error= 8.38D-08 at cycle   7 NSaved=   7.
 NSaved= 7 IEnMin= 7 EnMin= -762.156448065570     IErMin= 7 ErrMin= 8.38D-08
 ErrMax= 8.38D-08  0.00D+00 EMaxC= 1.00D-01 BMatC= 2.69D-12 BMatP= 1.23D-11
 IDIUse=1 WtCom= 1.00D+00 WtEn= 0.00D+00
 Coeff-Com: -0.131D-04 0.762D-03 0.452D-03 0.327D-02 0.631D-01 0.380D+00
 Coeff-Com:  0.552D+00
 Coeff:     -0.131D-04 0.762D-03 0.452D-03 0.327D-02 0.631D-01 0.380D+00
 Coeff:      0.552D+00
 Gap=     0.161 Goal=   None    Shift=    0.000
 RMSDP=8.70D-09 MaxDP=3.08D-07 DE=-8.41D-12 OVMax= 1.05D-06

 SCF Done:  E(RB3LYP) =  -762.156448066     A.U. after   15 cycles
            NFock= 15  Conv=0.87D-08     -V/T= 2.0036
 KE= 7.594484977929D+02 PE=-2.892807386694D+03 EE= 8.206552188426D+02
 Leave Link  502 at Fri Apr 15 12:01:25 2022, MaxMem=  1073741824 cpu:             623.5 elap:              78.0
 (Enter /home/gaussian/g16/l601.exe)
 Copying SCF densities to generalized density rwf, IOpCl= 0 IROHF=0.

 **********************************************************************

            Population analysis using the SCF Density.

 **********************************************************************

 Orbital symmetries:
       Occupied  (A) (A) (A) (A) (A) (A) (A) (A) (A) (A) (A) (A)
                 (A) (A) (A) (A) (A) (A) (A) (A) (A) (A) (A) (A)
                 (A) (A) (A) (A) (A) (A) (A) (A) (A) (A) (A) (A)
                 (A) (A) (A)
       Virtual   (A) (A) (A) (A) (A) (A) (A) (A) (A) (A) (A) (A)
                 (A) (A) (A) (A) (A) (A) (A) (A) (A) (A) (A) (A)
                 (A) (A) (A) (A) (A) (A) (A) (A) (A) (A) (A) (A)
                 (A) (A) (A) (A) (A) (A) (A) (A) (A) (A) (A) (A)
                 (A) (A) (A) (A) (A) (A) (A) (A) (A) (A) (A) (A)
                 (A) (A) (A) (A) (A) (A) (A) (A) (A) (A) (A) (A)
                 (A) (A) (A) (A) (A) (A) (A) (A) (A) (A) (A) (A)
                 (A) (A) (A) (A) (A) (A) (A) (A) (A) (A) (A) (A)
                 (A) (A) (A) (A) (A) (A) (A) (A) (A) (A) (A) (A)
                 (A) (A) (A) (A) (A) (A) (A) (A) (A) (A) (A) (A)
                 (A) (A) (A) (A) (A) (A) (A) (A) (A) (A) (A) (A)
                 (A) (A) (A) (A) (A) (A) (A) (A) (A) (A) (A) (A)
                 (A) (A) (A) (A) (A) (A) (A) (A) (A) (A) (A) (A)
                 (A) (A) (A) (A) (A) (A) (A) (A) (A) (A) (A) (A)
                 (A) (A) (A) (A) (A) (A) (A) (A) (A) (A) (A) (A)
                 (A) (A) (A) (A) (A) (A) (A) (A) (A) (A) (A) (A)
                 (A) (A) (A) (A) (A) (A) (A) (A) (A) (A) (A) (A)
                 (A) (A) (A) (A) (A) (A) (A) (A) (A) (A) (A) (A)
                 (A) (A) (A) (A) (A) (A) (A) (A) (A) (A) (A) (A)
                 (A) (A) (A) (A) (A) (A) (A) (A) (A) (A) (A) (A)
                 (A) (A) (A) (A) (A) (A) (A) (A) (A) (A) (A) (A)
                 (A) (A) (A) (A) (A) (A) (A) (A) (A) (A) (A) (A)
                 (A) (A) (A) (A) (A) (A) (A) (A) (A) (A) (A) (A)
                 (A) (A) (A) (A) (A) (A) (A) (A) (A) (A) (A) (A)
                 (A) (A) (A) (A) (A) (A) (A) (A) (A) (A) (A) (A)
                 (A) (A) (A) (A) (A) (A) (A) (A) (A) (A) (A) (A)
                 (A) (A) (A) (A) (A) (A) (A)
 The electronic state is 1-A.
 Alpha  occ. eigenvalues --  -88.88688 -14.36616 -10.21408 -10.21030 -10.20102
 Alpha  occ. eigenvalues --  -10.19916 -10.18178 -10.17794 -10.16300 -10.16239
 Alpha  occ. eigenvalues --   -7.96265  -5.92509  -5.92162  -5.91898  -0.98414
 Alpha  occ. eigenvalues --   -0.88007  -0.78117  -0.76694  -0.73491  -0.69930
 Alpha  occ. eigenvalues --   -0.60200  -0.58837  -0.58070  -0.55145  -0.52572
 Alpha  occ. eigenvalues --   -0.48144  -0.44081  -0.42495  -0.42449  -0.40720
 Alpha  occ. eigenvalues --   -0.39922  -0.39089  -0.38076  -0.37454  -0.34647
 Alpha  occ. eigenvalues --   -0.27045  -0.25946  -0.25490  -0.19997
 Alpha virt. eigenvalues --   -0.03868   0.00804   0.02758   0.03297   0.04519
 Alpha virt. eigenvalues --    0.06108   0.07039   0.07587   0.08718   0.09420
 Alpha virt. eigenvalues --    0.09624   0.10972   0.11773   0.13051   0.13430
 Alpha virt. eigenvalues --    0.16954   0.17808   0.19321   0.19558   0.20400
 Alpha virt. eigenvalues --    0.21696   0.21848   0.22470   0.23452   0.24554
 Alpha virt. eigenvalues --    0.25819   0.26263   0.27016   0.27486   0.28978
 Alpha virt. eigenvalues --    0.29608   0.31027   0.32616   0.33147   0.34144
 Alpha virt. eigenvalues --    0.34881   0.35080   0.36145   0.36425   0.38033
 Alpha virt. eigenvalues --    0.38347   0.39621   0.40319   0.40711   0.40950
 Alpha virt. eigenvalues --    0.41607   0.41856   0.42782   0.44500   0.45489
 Alpha virt. eigenvalues --    0.45952   0.46619   0.48177   0.49770   0.50982
 Alpha virt. eigenvalues --    0.52965   0.53624   0.55447   0.55947   0.56720
 Alpha virt. eigenvalues --    0.60321   0.60779   0.62518   0.63691   0.64273
 Alpha virt. eigenvalues --    0.64924   0.66411   0.66774   0.68602   0.70073
 Alpha virt. eigenvalues --    0.71175   0.73044   0.74460   0.75732   0.76360
 Alpha virt. eigenvalues --    0.80194   0.81787   0.82427   0.84762   0.87227
 Alpha virt. eigenvalues --    0.88032   0.90581   0.93446   0.94856   0.95282
 Alpha virt. eigenvalues --    0.96997   0.97317   0.97681   0.99719   1.00395
 Alpha virt. eigenvalues --    1.03988   1.04565   1.06540   1.06666   1.09135
 Alpha virt. eigenvalues --    1.11380   1.12045   1.15160   1.16486   1.19469
 Alpha virt. eigenvalues --    1.20138   1.21753   1.23792   1.24589   1.25920
 Alpha virt. eigenvalues --    1.26478   1.29608   1.30755   1.31502   1.34262
 Alpha virt. eigenvalues --    1.35844   1.36605   1.38288   1.41954   1.43148
 Alpha virt. eigenvalues --    1.44935   1.46206   1.46393   1.47480   1.49467
 Alpha virt. eigenvalues --    1.50113   1.51171   1.51973   1.52854   1.53697
 Alpha virt. eigenvalues --    1.54062   1.55732   1.58068   1.58639   1.60592
 Alpha virt. eigenvalues --    1.62166   1.64140   1.65216   1.66506   1.69943
 Alpha virt. eigenvalues --    1.71000   1.72797   1.75180   1.76916   1.77573
 Alpha virt. eigenvalues --    1.80109   1.80763   1.82515   1.86897   1.88657
 Alpha virt. eigenvalues --    1.89717   1.90339   1.91286   1.93109   1.95062
 Alpha virt. eigenvalues --    1.95800   1.96456   1.98406   2.01527   2.03830
 Alpha virt. eigenvalues --    2.06315   2.07812   2.10394   2.12364   2.13976
 Alpha virt. eigenvalues --    2.15336   2.16333   2.17671   2.21859   2.22234
 Alpha virt. eigenvalues --    2.24634   2.26102   2.26577   2.30434   2.32327
 Alpha virt. eigenvalues --    2.40731   2.44286   2.45903   2.48236   2.48709
 Alpha virt. eigenvalues --    2.49340   2.52470   2.53450   2.55362   2.56388
 Alpha virt. eigenvalues --    2.57586   2.60530   2.60569   2.63924   2.64852
 Alpha virt. eigenvalues --    2.65305   2.66003   2.67683   2.69807   2.71075
 Alpha virt. eigenvalues --    2.72584   2.72700   2.74713   2.76352   2.78048
 Alpha virt. eigenvalues --    2.79610   2.81964   2.83359   2.83795   2.84319
 Alpha virt. eigenvalues --    2.87680   2.88711   2.89680   2.92861   2.94414
 Alpha virt. eigenvalues --    2.97120   2.99595   3.01689   3.02361   3.03924
 Alpha virt. eigenvalues --    3.05233   3.06550   3.07347   3.08192   3.09556
 Alpha virt. eigenvalues --    3.11163   3.11530   3.13386   3.14464   3.14792
 Alpha virt. eigenvalues --    3.15400   3.15817   3.18693   3.20429   3.24298
 Alpha virt. eigenvalues --    3.26108   3.27322   3.28094   3.29382   3.31141
 Alpha virt. eigenvalues --    3.32250   3.34247   3.34820   3.36774   3.38827
 Alpha virt. eigenvalues --    3.39905   3.41739   3.43150   3.44341   3.46025
 Alpha virt. eigenvalues --    3.46393   3.47937   3.51219   3.52626   3.54428
 Alpha virt. eigenvalues --    3.55018   3.58272   3.58740   3.60832   3.62333
 Alpha virt. eigenvalues --    3.63616   3.66533   3.70341   3.77376   3.79198
 Alpha virt. eigenvalues --    3.80875   3.82204   3.86460   3.91143   3.95234
 Alpha virt. eigenvalues --    3.99212   4.00919   4.02330   4.04381   4.09108
 Alpha virt. eigenvalues --    4.15044   4.17485   4.20114   4.20349   4.22632
 Alpha virt. eigenvalues --    4.24819   4.25356   4.30868   4.32075   4.34821
 Alpha virt. eigenvalues --    4.36504   4.41768   4.44760   4.48422   4.55358
 Alpha virt. eigenvalues --    4.61940   4.67542   4.70284   4.71229   4.74990
 Alpha virt. eigenvalues --    4.77853   4.78800   4.81840   4.85209   4.89234
 Alpha virt. eigenvalues --    4.91895   4.94056   4.96417   5.01596   5.03032
 Alpha virt. eigenvalues --    5.09504   5.20084   5.22101   5.22745   5.32047
 Alpha virt. eigenvalues --    5.42709   5.52710   5.60347   5.74621   5.91746
 Alpha virt. eigenvalues --    5.99688   8.85873   9.39434   9.44997  20.07902
 Alpha virt. eigenvalues --   22.04809  22.29497  22.45794  22.60776  22.63972
 Alpha virt. eigenvalues --   22.72496  22.87522  23.20883  32.31986
          Condensed to atoms (all electrons):
               1          2          3          4          5          6
     1  C    4.960428   0.547748  -0.032510  -0.154238   0.414802  -0.035203
     2  C    0.547748   4.930647   0.454199  -0.043882  -0.107609   0.005869
     3  C   -0.032510   0.454199   5.019090   0.506062  -0.054885   0.010184
     4  C   -0.154238  -0.043882   0.506062   5.253228   0.383363  -0.054936
     5  N    0.414802  -0.107609  -0.054885   0.383363   6.343604   0.379897
     6  H   -0.035203   0.005869   0.010184  -0.054936   0.379897   0.468444
     7  H    0.409526  -0.023118   0.003767   0.007193  -0.034207  -0.004358
     8  H   -0.048453   0.433973  -0.048650   0.012281   0.004424  -0.000242
     9  H    0.014159  -0.051568   0.443477  -0.059477   0.005658  -0.000213
    10  C   -0.007725   0.004235  -0.060251   0.134698  -0.075199   0.003989
    11  C    0.000420   0.001020  -0.014486  -0.082555   0.003835   0.000285
    12  S    0.001435  -0.000704   0.000613  -0.150372   0.003261   0.007470
    13  C    0.000016  -0.000166   0.002439  -0.004121  -0.000876  -0.000076
    14  H   -0.000209   0.000249   0.003355  -0.009427  -0.000349  -0.000063
    15  C   -0.000066   0.000065  -0.001182  -0.004366   0.000725  -0.000184
    16  H   -0.000003   0.000001   0.000051  -0.000641  -0.000000  -0.000001
    17  H    0.000002  -0.000001   0.000010   0.000100   0.000009   0.000009
               7          8          9         10         11         12
     1  C    0.409526  -0.048453   0.014159  -0.007725   0.000420   0.001435
     2  C   -0.023118   0.433973  -0.051568   0.004235   0.001020  -0.000704
     3  C    0.003767  -0.048650   0.443477  -0.060251  -0.014486   0.000613
     4  C    0.007193   0.012281  -0.059477   0.134698  -0.082555  -0.150372
     5  N   -0.034207   0.004424   0.005658  -0.075199   0.003835   0.003261
     6  H   -0.004358  -0.000242  -0.000213   0.003989   0.000285   0.007470
     7  H    0.510495  -0.001943  -0.000134  -0.000458   0.000047   0.000003
     8  H   -0.001943   0.543186  -0.004369  -0.000254   0.000002   0.000012
     9  H   -0.000134  -0.004369   0.546904  -0.005005   0.002320  -0.000187
    10  C   -0.000458  -0.000254  -0.005005   5.115481   0.545539   0.501512
    11  C    0.000047   0.000002   0.002320   0.545539   5.111575  -0.114283
    12  S    0.000003   0.000012  -0.000187   0.501512  -0.114283  15.404917
    13  C   -0.000004  -0.000002   0.000184  -0.044833   0.397295  -0.029069
    14  H    0.000000   0.000007   0.000297  -0.036693   0.412326   0.010359
    15  C    0.000002  -0.000000  -0.000062  -0.114245  -0.009736   0.386949
    16  H    0.000000   0.000000   0.000001   0.009649  -0.052532   0.012007
    17  H    0.000000   0.000000   0.000001   0.004446   0.007769  -0.038666
              13         14         15         16         17
     1  C    0.000016  -0.000209  -0.000066  -0.000003   0.000002
     2  C   -0.000166   0.000249   0.000065   0.000001  -0.000001
     3  C    0.002439   0.003355  -0.001182   0.000051   0.000010
     4  C   -0.004121  -0.009427  -0.004366  -0.000641   0.000100
     5  N   -0.000876  -0.000349   0.000725  -0.000000   0.000009
     6  H   -0.000076  -0.000063  -0.000184  -0.000001   0.000009
     7  H   -0.000004   0.000000   0.000002   0.000000   0.000000
     8  H   -0.000002   0.000007  -0.000000   0.000000   0.000000
     9  H    0.000184   0.000297  -0.000062   0.000001   0.000001
    10  C   -0.044833  -0.036693  -0.114245   0.009649   0.004446
    11  C    0.397295   0.412326  -0.009736  -0.052532   0.007769
    12  S   -0.029069   0.010359   0.386949   0.012007  -0.038666
    13  C    4.865738  -0.042436   0.589237   0.423774  -0.029540
    14  H   -0.042436   0.543344   0.006034  -0.001721  -0.000179
    15  C    0.589237   0.006034   4.976650  -0.052785   0.405181
    16  H    0.423774  -0.001721  -0.052785   0.552257  -0.005415
    17  H   -0.029540  -0.000179   0.405181  -0.005415   0.516608
 Mulliken charges:
               1
     1  C   -0.070129
     2  C   -0.150957
     3  C   -0.231283
     4  C    0.267089
     5  N   -0.266452
     6  H    0.219131
     7  H    0.133187
     8  H    0.110028
     9  H    0.108014
    10  C    0.025114
    11  C   -0.208839
    12  S    0.004743
    13  C   -0.127562
    14  H    0.115105
    15  C   -0.182216
    16  H    0.115360
    17  H    0.139668
 Sum of Mulliken charges =  -0.00000
 Mulliken charges with hydrogens summed into heavy atoms:
               1
     1  C    0.063058
     2  C   -0.040929
     3  C   -0.123269
     4  C    0.267089
     5  N   -0.047321
    10  C    0.025114
    11  C   -0.093734
    12  S    0.004743
    13  C   -0.012202
    15  C   -0.042548
 Electronic spatial extent (au):  <R**2>=           1753.7612
 Charge=             -0.0000 electrons
 Dipole moment (field-independent basis, Debye):
    X=              0.3241    Y=             -0.8488    Z=              0.6209  Tot=              1.1005
 Quadrupole moment (field-independent basis, Debye-Ang):
   XX=            -58.9852   YY=            -58.5695   ZZ=            -70.6473
   XY=              2.8259   XZ=             -0.4428   YZ=             -1.8444
 Traceless Quadrupole moment (field-independent basis, Debye-Ang):
   XX=              3.7488   YY=              4.1645   ZZ=             -7.9133
   XY=              2.8259   XZ=             -0.4428   YZ=             -1.8444
 Octapole moment (field-independent basis, Debye-Ang**2):
  XXX=             12.2168  YYY=             -4.3090  ZZZ=              0.8085  XYY=             -3.9522
  XXY=             -8.0055  XXZ=              0.7148  XZZ=              0.5348  YZZ=             -4.0335
  YYZ=              3.3917  XYZ=              7.7383
 Hexadecapole moment (field-independent basis, Debye-Ang**3):
 XXXX=          -1714.9133 YYYY=           -428.2025 ZZZZ=           -108.8753 XXXY=              5.0335
 XXXZ=             -0.3724 YYYX=             19.5949 YYYZ=             -7.9781 ZZZX=             -4.6331
 ZZZY=             -2.1722 XXYY=           -352.7775 XXZZ=           -372.7963 YYZZ=            -97.6711
 XXYZ=             -8.4190 YYXZ=             -0.3921 ZZXY=              1.0647
 N-N= 5.505472219926D+02 E-N=-2.892807408785D+03  KE= 7.594484977929D+02
 No NMR shielding tensors so no spin-rotation constants.
 Leave Link  601 at Fri Apr 15 12:01:25 2022, MaxMem=  1073741824 cpu:               1.1 elap:               0.2
 (Enter /home/gaussian/g16/l9999.exe)
 Unable to Open any file for archive entry.
 1\1\GINC-DESKTOP-ATGL590\SP\RB3LYP\def2TZVP\C8H7N1S1\ICCAS\15-Apr-2022
 \0\\#P B3LYP/def2TZVP\\B3LYP/def2-TZVP with vaccum\\0,1\C,0,-3.001454,
 -0.727759,0.202431\C,0,-3.181173,0.586994,-0.178118\C,0,-1.894215,1.17
 3164,-0.307008\C,0,-0.951322,0.201719,0.002152\N,0,-1.650506,-0.953338
 ,0.301096\H,0,-1.224633,-1.802167,0.641769\H,0,-3.714253,-1.512378,0.4
 08469\H,0,-4.132105,1.069513,-0.356456\H,0,-1.665715,2.181184,-0.62353
 9\C,0,0.492796,0.26544,0.033816\C,0,1.296351,1.364458,0.232861\S,0,1.4
 77288,-1.167021,-0.229673\C,0,2.689588,1.064282,0.187768\H,0,0.89371,2
 .35086,0.432346\C,0,2.947441,-0.259413,-0.035287\H,0,3.468266,1.805124
 ,0.332336\H,0,3.903583,-0.759739,-0.099531\\Version=ES64L-G16RevC.01\S
 tate=1-A\HF=-762.1564481\RMSD=8.696e-09\Dipole=0.1274954,-0.3339523,0.
 2442891\Quadrupole=2.7871166,3.0962203,-5.8833369,2.1009906,-0.3292024
 ,-1.3712738\PG=C01 [X(C8H7N1S1)]\\@
 The archive entry for this job was punched.


 DO YOU KNOW THAT THE LETTERS IN "EPISCOPAL", WHEN
 REARRANGED, SPELL "PEPSI COLA"?
 Job cpu time:       0 days  0 hours 10 minutes 42.2 seconds.
 Elapsed time:       0 days  0 hours  1 minutes 20.5 seconds.
 File lengths (MBytes):  RWF=     73 Int=      0 D2E=      0 Chk=      9 Scr=      1
 Normal termination of Gaussian 16 at Fri Apr 15 12:01:25 2022.
