 Entering Gaussian System, Link 0=g16
 Input=mol_opt.gjf
 Output=mol_opt.out
 Initial command:
 /home/gaussian/g16/l1.exe "/scratch/Gau-298.inp" -scrdir="/scratch/"
 Entering Link 1 = /home/gaussian/g16/l1.exe PID=       300.
  
 Copyright (c) 1988-2019, Gaussian, Inc.  All Rights Reserved.
  
 This is part of the Gaussian(R) 16 program.  It is based on
 the Gaussian(R) 09 system (copyright 2009, Gaussian, Inc.),
 the Gaussian(R) 03 system (copyright 2003, Gaussian, Inc.),
 the Gaussian(R) 98 system (copyright 1998, Gaussian, Inc.),
 the Gaussian(R) 94 system (copyright 1995, Gaussian, Inc.),
 the Gaussian 92(TM) system (copyright 1992, Gaussian, Inc.),
 the Gaussian 90(TM) system (copyright 1990, Gaussian, Inc.),
 the Gaussian 88(TM) system (copyright 1988, Gaussian, Inc.),
 the Gaussian 86(TM) system (copyright 1986, Carnegie Mellon
 University), and the Gaussian 82(TM) system (copyright 1983,
 Carnegie Mellon University). Gaussian is a federally registered
 trademark of Gaussian, Inc.
  
 This software contains proprietary and confidential information,
 including trade secrets, belonging to Gaussian, Inc.
  
 This software is provided under written license and may be
 used, copied, transmitted, or stored only in accord with that
 written license.
  
 The following legend is applicable only to US Government
 contracts under FAR:
  
                    RESTRICTED RIGHTS LEGEND
  
 Use, reproduction and disclosure by the US Government is
 subject to restrictions as set forth in subparagraphs (a)
 and (c) of the Commercial Computer Software - Restricted
 Rights clause in FAR 52.227-19.
  
 Gaussian, Inc.
 340 Quinnipiac St., Bldg. 40, Wallingford CT 06492
  
  
 ---------------------------------------------------------------
 Warning -- This program may not be used in any manner that
 competes with the business of Gaussian, Inc. or will provide
 assistance to any competitor of Gaussian, Inc.  The licensee
 of this program is prohibited from giving any competitor of
 Gaussian, Inc. access to this program.  By using this program,
 the user acknowledges that Gaussian, Inc. is engaged in the
 business of creating and licensing software in the field of
 computational chemistry and represents and warrants to the
 licensee that it is not a competitor of Gaussian, Inc. and that
 it will not use this program in any manner prohibited above.
 ---------------------------------------------------------------
  

 Cite this work as:
 Gaussian 16, Revision C.01,
 M. J. Frisch, G. W. Trucks, H. B. Schlegel, G. E. Scuseria, 
 M. A. Robb, J. R. Cheeseman, G. Scalmani, V. Barone, 
 G. A. Petersson, H. Nakatsuji, X. Li, M. Caricato, A. V. Marenich, 
 J. Bloino, B. G. Janesko, R. Gomperts, B. Mennucci, H. P. Hratchian, 
 J. V. Ortiz, A. F. Izmaylov, J. L. Sonnenberg, D. Williams-Young, 
 F. Ding, F. Lipparini, F. Egidi, J. Goings, B. Peng, A. Petrone, 
 T. Henderson, D. Ranasinghe, V. G. Zakrzewski, J. Gao, N. Rega, 
 G. Zheng, W. Liang, M. Hada, M. Ehara, K. Toyota, R. Fukuda, 
 J. Hasegawa, M. Ishida, T. Nakajima, Y. Honda, O. Kitao, H. Nakai, 
 T. Vreven, K. Throssell, J. A. Montgomery, Jr., J. E. Peralta, 
 F. Ogliaro, M. J. Bearpark, J. J. Heyd, E. N. Brothers, K. N. Kudin, 
 V. N. Staroverov, T. A. Keith, R. Kobayashi, J. Normand, 
 K. Raghavachari, A. P. Rendell, J. C. Burant, S. S. Iyengar, 
 J. Tomasi, M. Cossi, J. M. Millam, M. Klene, C. Adamo, R. Cammi, 
 J. W. Ochterski, R. L. Martin, K. Morokuma, O. Farkas, 
 J. B. Foresman, and D. J. Fox, Gaussian, Inc., Wallingford CT, 2019.
 
 ******************************************
 Gaussian 16:  ES64L-G16RevC.01  3-Jul-2019
                15-Apr-2022 
 ******************************************
 %CPU=0-7
 SetSPE:  set environment variable "MP_BIND" = "yes"
 SetSPE:  set environment variable "MP_BLIST" = "0,1,2,3,4,5,6,7"
 Will use up to    8 processors via shared memory.
 %Mem=8GB
 %chk=mol_opt.chk
 -------------------------------------------------
 # Opt Freq B3LYP/6-31G* EmpiricalDispersion=GD3BJ
 -------------------------------------------------
 1/18=20,19=15,26=3,38=1/1,3;
 2/9=110,12=2,17=6,18=5,40=1/2;
 3/5=1,6=6,7=1,11=2,25=1,30=1,71=1,74=-5,124=41/1,2,3;
 4//1;
 5/5=2,38=5/2;
 6/7=2,8=2,9=2,10=2,28=1/1;
 7//1,2,3,16;
 1/18=20,19=15,26=3/3(2);
 2/9=110/2;
 99//99;
 2/9=110/2;
 3/5=1,6=6,7=1,11=2,25=1,30=1,71=1,74=-5,124=41/1,2,3;
 4/5=5,16=3,69=1/1;
 5/5=2,38=5/2;
 7//1,2,3,16;
 1/18=20,19=15,26=3/3(-5);
 2/9=110/2;
 6/7=2,8=2,9=2,10=2,19=2,28=1/1;
 99/9=1/99;
 -------------------------------------
 Optimize at B3LYP-D3(BJ)/6-31G* level
 -------------------------------------
 Symbolic Z-matrix:
 Charge =  0 Multiplicity = 1
 C                     0.41059  -2.7934    0.18912 
 C                    -0.91367  -3.06742  -0.17987 
 C                    -1.5821   -1.80643  -0.32811 
 C                    -0.6437   -0.80434  -0.04458 
 N                     0.56796  -1.41287   0.26959 
 H                     1.39944  -0.94406   0.50956 
 H                     1.23624  -3.47311   0.39597 
 H                    -1.35188  -4.04895  -0.32619 
 H                    -2.6197   -1.65723  -0.60731 
 C                    -0.7977    0.72794  -0.04479 
 C                    -1.99114   1.41528  -0.04485 
 S                     0.51095   1.76889  -0.04487 
 C                    -1.7815    2.83197  -0.04428 
 H                    -2.98275   0.95917  -0.04502 
 C                    -0.44018   3.14428  -0.04463 
 H                    -2.59852   3.55574  -0.04366 
 H                    -0.02236   4.14907  -0.0448 
 

 GradGradGradGradGradGradGradGradGradGradGradGradGradGradGradGradGradGrad
 Berny optimization.
 Initialization pass.
                           ----------------------------
                           !    Initial Parameters    !
                           ! (Angstroms and Degrees)  !
 --------------------------                            --------------------------
 ! Name  Definition              Value          Derivative Info.                !
 --------------------------------------------------------------------------------
 ! R1    R(1,2)                  1.4018         estimate D2E/DX2                !
 ! R2    R(1,5)                  1.3918         estimate D2E/DX2                !
 ! R3    R(1,7)                  1.0893         estimate D2E/DX2                !
 ! R4    R(2,3)                  1.4349         estimate D2E/DX2                !
 ! R5    R(2,8)                  1.0848         estimate D2E/DX2                !
 ! R6    R(3,4)                  1.4018         estimate D2E/DX2                !
 ! R7    R(3,9)                  1.0848         estimate D2E/DX2                !
 ! R8    R(4,5)                  1.3918         estimate D2E/DX2                !
 ! R9    R(4,10)                 1.54           estimate D2E/DX2                !
 ! R10   R(5,6)                  0.9842         estimate D2E/DX2                !
 ! R11   R(10,11)                1.3772         estimate D2E/DX2                !
 ! R12   R(10,12)                1.6722         estimate D2E/DX2                !
 ! R13   R(11,13)                1.4321         estimate D2E/DX2                !
 ! R14   R(11,14)                1.0915         estimate D2E/DX2                !
 ! R15   R(12,15)                1.6722         estimate D2E/DX2                !
 ! R16   R(13,15)                1.3772         estimate D2E/DX2                !
 ! R17   R(13,16)                1.0915         estimate D2E/DX2                !
 ! R18   R(15,17)                1.0882         estimate D2E/DX2                !
 ! A1    A(2,1,5)              108.4177         estimate D2E/DX2                !
 ! A2    A(2,1,7)              130.0976         estimate D2E/DX2                !
 ! A3    A(5,1,7)              121.4847         estimate D2E/DX2                !
 ! A4    A(1,2,3)              107.1872         estimate D2E/DX2                !
 ! A5    A(1,2,8)              126.4408         estimate D2E/DX2                !
 ! A6    A(3,2,8)              126.372          estimate D2E/DX2                !
 ! A7    A(2,3,4)              107.1858         estimate D2E/DX2                !
 ! A8    A(2,3,9)              126.3724         estimate D2E/DX2                !
 ! A9    A(4,3,9)              126.4419         estimate D2E/DX2                !
 ! A10   A(3,4,5)              108.4137         estimate D2E/DX2                !
 ! A11   A(3,4,10)             130.1121         estimate D2E/DX2                !
 ! A12   A(5,4,10)             121.4742         estimate D2E/DX2                !
 ! A13   A(1,5,4)              108.7956         estimate D2E/DX2                !
 ! A14   A(1,5,6)              125.5966         estimate D2E/DX2                !
 ! A15   A(4,5,6)              125.6078         estimate D2E/DX2                !
 ! A16   A(4,10,11)            125.6782         estimate D2E/DX2                !
 ! A17   A(4,10,12)            122.7613         estimate D2E/DX2                !
 ! A18   A(11,10,12)           111.5605         estimate D2E/DX2                !
 ! A19   A(10,11,13)           111.5216         estimate D2E/DX2                !
 ! A20   A(10,11,14)           125.3597         estimate D2E/DX2                !
 ! A21   A(13,11,14)           123.1187         estimate D2E/DX2                !
 ! A22   A(10,12,15)            93.835          estimate D2E/DX2                !
 ! A23   A(11,13,15)           111.5245         estimate D2E/DX2                !
 ! A24   A(11,13,16)           123.1189         estimate D2E/DX2                !
 ! A25   A(15,13,16)           125.3567         estimate D2E/DX2                !
 ! A26   A(12,15,13)           111.5584         estimate D2E/DX2                !
 ! A27   A(12,15,17)           122.7558         estimate D2E/DX2                !
 ! A28   A(13,15,17)           125.6858         estimate D2E/DX2                !
 ! D1    D(5,1,2,3)              0.0004         estimate D2E/DX2                !
 ! D2    D(5,1,2,8)            179.9987         estimate D2E/DX2                !
 ! D3    D(7,1,2,3)           -179.9933         estimate D2E/DX2                !
 ! D4    D(7,1,2,8)              0.0051         estimate D2E/DX2                !
 ! D5    D(2,1,5,4)              0.0039         estimate D2E/DX2                !
 ! D6    D(2,1,5,6)            179.9846         estimate D2E/DX2                !
 ! D7    D(7,1,5,4)            179.9982         estimate D2E/DX2                !
 ! D8    D(7,1,5,6)             -0.0211         estimate D2E/DX2                !
 ! D9    D(1,2,3,4)             -0.0044         estimate D2E/DX2                !
 ! D10   D(1,2,3,9)           -179.9984         estimate D2E/DX2                !
 ! D11   D(8,2,3,4)            179.9972         estimate D2E/DX2                !
 ! D12   D(8,2,3,9)              0.0033         estimate D2E/DX2                !
 ! D13   D(2,3,4,5)              0.0069         estimate D2E/DX2                !
 ! D14   D(2,3,4,10)          -179.9922         estimate D2E/DX2                !
 ! D15   D(9,3,4,5)           -179.9992         estimate D2E/DX2                !
 ! D16   D(9,3,4,10)             0.0017         estimate D2E/DX2                !
 ! D17   D(3,4,5,1)             -0.0067         estimate D2E/DX2                !
 ! D18   D(3,4,5,6)           -179.9874         estimate D2E/DX2                !
 ! D19   D(10,4,5,1)           179.9924         estimate D2E/DX2                !
 ! D20   D(10,4,5,6)             0.0117         estimate D2E/DX2                !
 ! D21   D(3,4,10,11)           15.3437         estimate D2E/DX2                !
 ! D22   D(3,4,10,12)         -164.6602         estimate D2E/DX2                !
 ! D23   D(5,4,10,11)         -164.6551         estimate D2E/DX2                !
 ! D24   D(5,4,10,12)           15.3409         estimate D2E/DX2                !
 ! D25   D(4,10,11,13)         179.9669         estimate D2E/DX2                !
 ! D26   D(4,10,11,14)          -0.0168         estimate D2E/DX2                !
 ! D27   D(12,10,11,13)         -0.0295         estimate D2E/DX2                !
 ! D28   D(12,10,11,14)        179.9868         estimate D2E/DX2                !
 ! D29   D(4,10,12,15)        -179.9841         estimate D2E/DX2                !
 ! D30   D(11,10,12,15)          0.0124         estimate D2E/DX2                !
 ! D31   D(10,11,13,15)          0.0362         estimate D2E/DX2                !
 ! D32   D(10,11,13,16)       -179.9641         estimate D2E/DX2                !
 ! D33   D(14,11,13,15)       -179.9797         estimate D2E/DX2                !
 ! D34   D(14,11,13,16)          0.0199         estimate D2E/DX2                !
 ! D35   D(10,12,15,13)          0.0088         estimate D2E/DX2                !
 ! D36   D(10,12,15,17)       -179.9872         estimate D2E/DX2                !
 ! D37   D(11,13,15,12)         -0.0269         estimate D2E/DX2                !
 ! D38   D(11,13,15,17)        179.969          estimate D2E/DX2                !
 ! D39   D(16,13,15,12)        179.9735         estimate D2E/DX2                !
 ! D40   D(16,13,15,17)         -0.0306         estimate D2E/DX2                !
 --------------------------------------------------------------------------------
 Trust Radius=3.00D-01 FncErr=1.00D-07 GrdErr=1.00D-06 EigMax=2.50D+02 EigMin=1.00D-04
 Number of steps in this run=     96 maximum allowed number of steps=    102.
 GradGradGradGradGradGradGradGradGradGradGradGradGradGradGradGradGradGrad

                          Input orientation:                          
 ---------------------------------------------------------------------
 Center     Atomic      Atomic             Coordinates (Angstroms)
 Number     Number       Type             X           Y           Z
 ---------------------------------------------------------------------
      1          6           0        0.410588   -2.793397    0.189119
      2          6           0       -0.913672   -3.067418   -0.179867
      3          6           0       -1.582103   -1.806435   -0.328108
      4          6           0       -0.643698   -0.804344   -0.044582
      5          7           0        0.567959   -1.412868    0.269592
      6          1           0        1.399440   -0.944063    0.509558
      7          1           0        1.236242   -3.473110    0.395971
      8          1           0       -1.351878   -4.048946   -0.326191
      9          1           0       -2.619698   -1.657233   -0.607309
     10          6           0       -0.797696    0.727937   -0.044789
     11          6           0       -1.991140    1.415282   -0.044851
     12         16           0        0.510949    1.768895   -0.044873
     13          6           0       -1.781499    2.831973   -0.044283
     14          1           0       -2.982752    0.959167   -0.045021
     15          6           0       -0.440184    3.144279   -0.044630
     16          1           0       -2.598519    3.555736   -0.043662
     17          1           0       -0.022365    4.149073   -0.044804
 ---------------------------------------------------------------------
                    Distance matrix (angstroms):
                    1          2          3          4          5
     1  C    0.000000
     2  C    1.401750   0.000000
     3  C    2.283076   1.434871   0.000000
     4  C    2.263287   2.283133   1.401848   0.000000
     5  N    1.391798   2.266005   2.266033   1.391804   0.000000
     6  H    2.121449   3.214721   3.214805   2.121557   0.984238
     7  H    1.089267   2.262368   3.353382   3.294021   2.169602
     8  H    2.224463   1.084819   2.254300   3.332907   3.315062
     9  H    3.332836   2.254297   1.084811   2.224558   3.315090
    10  C    3.730209   3.799529   2.668071   1.540000   2.558690
    11  C    4.851394   4.612350   3.259909   2.596601   3.827048
    12  S    4.569391   5.043580   4.152598   2.820420   3.197773
    13  C    6.041896   5.964421   4.651359   3.810169   4.861805
    14  H    5.064713   4.529091   3.112958   2.929359   4.281714
    15  C    6.002870   6.231185   5.088605   3.953863   4.677892
    16  H    7.029964   6.835454   5.465060   4.778244   5.900147
    17  H    6.959890   7.272580   6.162883   4.992233   5.602010
                    6          7          8          9         10
     6  H    0.000000
     7  H    2.536851   0.000000
     8  H    4.231847   2.747995   0.000000
     9  H    4.231958   4.378613   2.721523   0.000000
    10  C    2.816078   4.688281   4.817149   3.053711   0.000000
    11  C    4.167723   5.874240   5.508684   3.186187   1.377226
    12  S    2.908084   5.310274   6.115271   4.675001   1.672168
    13  C    4.968255   7.003903   6.900079   4.601363   2.322678
    14  H    4.809725   6.135101   5.274467   2.700653   2.197256
    15  C    4.517287   6.840641   7.256235   5.302961   2.442646
    16  H    6.044661   8.018937   7.711363   5.243395   3.352523
    17  H    5.316849   7.737962   8.309892   6.385589   3.507893
                   11         12         13         14         15
    11  C    0.000000
    12  S    2.526954   0.000000
    13  C    1.432118   2.526946   0.000000
    14  H    1.091483   3.586308   2.224952   0.000000
    15  C    2.322691   1.672225   1.377194   3.352516   0.000000
    16  H    2.224961   3.586307   1.091492   2.624844   2.197205
    17  H    3.368931   2.439195   2.197569   4.351942   1.088203
                   16         17
    16  H    0.000000
    17  H    2.643601   0.000000
 Stoichiometry    C8H7NS
 Framework group  C1[X(C8H7NS)]
 Deg. of freedom    45
 Full point group                 C1      NOp   1
 Largest Abelian subgroup         C1      NOp   1
 Largest concise Abelian subgroup C1      NOp   1
                         Standard orientation:                         
 ---------------------------------------------------------------------
 Center     Atomic      Atomic             Coordinates (Angstroms)
 Number     Number       Type             X           Y           Z
 ---------------------------------------------------------------------
      1          6           0       -3.042660   -0.748334    0.117575
      2          6           0       -3.222318    0.624229   -0.103097
      3          6           0       -1.917304    1.215899   -0.178729
      4          6           0       -0.984161    0.184856   -0.001605
      5          7           0       -1.676814   -1.008879    0.178250
      6          1           0       -1.268023   -1.892163    0.324612
      7          1           0       -3.779019   -1.542615    0.233326
      8          1           0       -4.170328    1.142814   -0.198906
      9          1           0       -1.695101    2.265034   -0.342307
     10          6           0        0.555068    0.231390    0.012913
     11          6           0        1.323150    1.367101    0.143145
     12         16           0        1.503179   -1.138299   -0.132637
     13          6           0        2.721957    1.061000    0.118599
     14          1           0        0.936590    2.381940    0.252722
     15          6           0        2.940916   -0.290559   -0.029753
     16          1           0        3.500379    1.820877    0.208048
     17          1           0        3.914450   -0.774450   -0.077343
 ---------------------------------------------------------------------
 Rotational constants (GHZ):           3.4287065           0.7344543           0.6085794
 Standard basis: 6-31G(d) (6D, 7F)
 There are   168 symmetry adapted cartesian basis functions of A   symmetry.
 There are   168 symmetry adapted basis functions of A   symmetry.
   168 basis functions,   332 primitive gaussians,   168 cartesian basis functions
    39 alpha electrons       39 beta electrons
       nuclear repulsion energy       549.2738711667 Hartrees.
 NAtoms=   17 NActive=   17 NUniq=   17 SFac= 1.00D+00 NAtFMM=   60 NAOKFM=F Big=F
 Integral buffers will be    131072 words long.
 Raffenetti 2 integral format.
 Two-electron integral symmetry is turned on.
 Nuclear repulsion after empirical dispersion term =      549.2392873845 Hartrees.
 One-electron integrals computed using PRISM.
 NBasis=   168 RedAO= T EigKep=  8.66D-04  NBF=   168
 NBsUse=   168 1.00D-06 EigRej= -1.00D+00 NBFU=   168
 ExpMin= 1.17D-01 ExpMax= 2.19D+04 ExpMxC= 3.30D+03 IAcc=3 IRadAn=         5 AccDes= 0.00D+00
 Harris functional with IExCor=  402 and IRadAn=       5 diagonalized for initial guess.
 HarFok:  IExCor=  402 AccDes= 0.00D+00 IRadAn=         5 IDoV= 1 UseB2=F ITyADJ=14
 ICtDFT=  3500011 ScaDFX=  1.000000  1.000000  1.000000  1.000000
 FoFCou: FMM=F IPFlag=           0 FMFlag=      100000 FMFlg1=           0
         NFxFlg=           0 DoJE=T BraDBF=F KetDBF=T FulRan=T
         wScrn=  0.000000 ICntrl=       500 IOpCl=  0 I1Cent=   200000004 NGrid=           0
         NMat0=    1 NMatS0=      1 NMatT0=    0 NMatD0=    1 NMtDS0=    0 NMtDT0=    0
 Petite list used in FoFCou.
 Requested convergence on RMS density matrix=1.00D-08 within 128 cycles.
 Requested convergence on MAX density matrix=1.00D-06.
 Requested convergence on             energy=1.00D-06.
 No special actions if energy rises.
 Integral accuracy reduced to 1.0D-05 until final iterations.
 Initial convergence to 1.0D-05 achieved.  Increase integral accuracy.
 SCF Done:  E(RB3LYP) =  -762.004872133     A.U. after   15 cycles
            NFock= 15  Conv=0.60D-08     -V/T= 2.0066

 **********************************************************************

            Population analysis using the SCF Density.

 **********************************************************************

 Orbital symmetries:
       Occupied  (A) (A) (A) (A) (A) (A) (A) (A) (A) (A) (A) (A)
                 (A) (A) (A) (A) (A) (A) (A) (A) (A) (A) (A) (A)
                 (A) (A) (A) (A) (A) (A) (A) (A) (A) (A) (A) (A)
                 (A) (A) (A)
       Virtual   (A) (A) (A) (A) (A) (A) (A) (A) (A) (A) (A) (A)
                 (A) (A) (A) (A) (A) (A) (A) (A) (A) (A) (A) (A)
                 (A) (A) (A) (A) (A) (A) (A) (A) (A) (A) (A) (A)
                 (A) (A) (A) (A) (A) (A) (A) (A) (A) (A) (A) (A)
                 (A) (A) (A) (A) (A) (A) (A) (A) (A) (A) (A) (A)
                 (A) (A) (A) (A) (A) (A) (A) (A) (A) (A) (A) (A)
                 (A) (A) (A) (A) (A) (A) (A) (A) (A) (A) (A) (A)
                 (A) (A) (A) (A) (A) (A) (A) (A) (A) (A) (A) (A)
                 (A) (A) (A) (A) (A) (A) (A) (A) (A) (A) (A) (A)
                 (A) (A) (A) (A) (A) (A) (A) (A) (A) (A) (A) (A)
                 (A) (A) (A) (A) (A) (A) (A) (A) (A)
 The electronic state is 1-A.
 Alpha  occ. eigenvalues --  -88.90874 -14.38078 -10.22627 -10.22258 -10.21072
 Alpha  occ. eigenvalues --  -10.20753 -10.19154 -10.18728 -10.17452 -10.17404
 Alpha  occ. eigenvalues --   -7.97241  -5.93630  -5.93243  -5.92950  -0.96850
 Alpha  occ. eigenvalues --   -0.89205  -0.77073  -0.74794  -0.73525  -0.69025
 Alpha  occ. eigenvalues --   -0.59615  -0.57341  -0.56671  -0.54527  -0.52055
 Alpha  occ. eigenvalues --   -0.47462  -0.43479  -0.41506  -0.40883  -0.39837
 Alpha  occ. eigenvalues --   -0.38236  -0.37853  -0.37732  -0.36737  -0.34674
 Alpha  occ. eigenvalues --   -0.25600  -0.25068  -0.24049  -0.18748
 Alpha virt. eigenvalues --   -0.01675   0.03459   0.04782   0.06588   0.08123
 Alpha virt. eigenvalues --    0.10398   0.10984   0.12748   0.13885   0.15470
 Alpha virt. eigenvalues --    0.16373   0.17200   0.19754   0.21401   0.22632
 Alpha virt. eigenvalues --    0.24059   0.28133   0.29729   0.31372   0.33146
 Alpha virt. eigenvalues --    0.35819   0.40336   0.42073   0.43900   0.45281
 Alpha virt. eigenvalues --    0.48921   0.51877   0.53447   0.54611   0.55737
 Alpha virt. eigenvalues --    0.57746   0.57875   0.58634   0.59625   0.60506
 Alpha virt. eigenvalues --    0.61748   0.62102   0.63594   0.64397   0.65180
 Alpha virt. eigenvalues --    0.68024   0.70801   0.76099   0.76788   0.79354
 Alpha virt. eigenvalues --    0.80242   0.82311   0.82885   0.84104   0.84594
 Alpha virt. eigenvalues --    0.85775   0.87262   0.87465   0.88791   0.90012
 Alpha virt. eigenvalues --    0.93495   0.95049   0.95321   0.98009   1.02384
 Alpha virt. eigenvalues --    1.04187   1.07343   1.08672   1.13369   1.15321
 Alpha virt. eigenvalues --    1.18526   1.22238   1.24505   1.30272   1.32027
 Alpha virt. eigenvalues --    1.36061   1.37333   1.39664   1.42363   1.44010
 Alpha virt. eigenvalues --    1.45437   1.47742   1.50556   1.53364   1.56090
 Alpha virt. eigenvalues --    1.61497   1.63777   1.76552   1.79585   1.84849
 Alpha virt. eigenvalues --    1.88592   1.89840   1.92890   1.93395   1.97000
 Alpha virt. eigenvalues --    1.99613   2.02640   2.10298   2.17060   2.18350
 Alpha virt. eigenvalues --    2.19195   2.19655   2.20944   2.24535   2.26158
 Alpha virt. eigenvalues --    2.26285   2.29261   2.30962   2.37403   2.41597
 Alpha virt. eigenvalues --    2.46723   2.50619   2.53552   2.59453   2.61092
 Alpha virt. eigenvalues --    2.68301   2.68890   2.73931   2.79206   2.87651
 Alpha virt. eigenvalues --    2.92613   2.97165   3.08400   3.15618   3.96781
 Alpha virt. eigenvalues --    3.97148   4.08372   4.11484   4.12690   4.18673
 Alpha virt. eigenvalues --    4.28910   4.41363   4.44289   4.59698
          Condensed to atoms (all electrons):
               1          2          3          4          5          6
     1  C    4.882193   0.581083  -0.051647  -0.097764   0.344478  -0.029821
     2  C    0.581083   4.887989   0.488981  -0.020285  -0.052116   0.004439
     3  C   -0.051647   0.488981   5.003686   0.567850  -0.082110   0.007898
     4  C   -0.097764  -0.020285   0.567850   4.689621   0.341091  -0.026248
     5  N    0.344478  -0.052116  -0.082110   0.341091   6.850090   0.319006
     6  H   -0.029821   0.004439   0.007898  -0.026248   0.319006   0.388929
     7  H    0.368583  -0.035428   0.004178   0.004485  -0.048060  -0.001937
     8  H   -0.044794   0.368114  -0.036992   0.003974   0.004659  -0.000108
     9  H    0.005770  -0.043989   0.366726  -0.042364   0.005111  -0.000107
    10  C    0.007338   0.005857  -0.066117   0.338533  -0.056950  -0.008153
    11  C   -0.000013   0.000168  -0.010311  -0.018951   0.003213  -0.000111
    12  S    0.000119  -0.000181   0.003568  -0.049186  -0.000631   0.007645
    13  C    0.000001  -0.000002   0.000226   0.005125  -0.000129   0.000010
    14  H   -0.000001   0.000001   0.002165  -0.006951   0.000032  -0.000005
    15  C   -0.000000   0.000001  -0.000056   0.003156   0.000055  -0.000087
    16  H   -0.000000   0.000000  -0.000000  -0.000117   0.000000  -0.000000
    17  H    0.000000  -0.000000   0.000001  -0.000061  -0.000000   0.000001
               7          8          9         10         11         12
     1  C    0.368583  -0.044794   0.005770   0.007338  -0.000013   0.000119
     2  C   -0.035428   0.368114  -0.043989   0.005857   0.000168  -0.000181
     3  C    0.004178  -0.036992   0.366726  -0.066117  -0.010311   0.003568
     4  C    0.004485   0.003974  -0.042364   0.338533  -0.018951  -0.049186
     5  N   -0.048060   0.004659   0.005111  -0.056950   0.003213  -0.000631
     6  H   -0.001937  -0.000108  -0.000107  -0.008153  -0.000111   0.007645
     7  H    0.564368  -0.001335  -0.000124  -0.000125   0.000001  -0.000002
     8  H   -0.001335   0.579352  -0.002647  -0.000149  -0.000000   0.000002
     9  H   -0.000124  -0.002647   0.583984  -0.005115   0.001868   0.000013
    10  C   -0.000125  -0.000149  -0.005115   5.225672   0.570720   0.318843
    11  C    0.000001  -0.000000   0.001868   0.570720   4.897362  -0.105214
    12  S   -0.000002   0.000002   0.000013   0.318843  -0.105214  15.354954
    13  C   -0.000000   0.000000  -0.000012  -0.024897   0.507111  -0.088513
    14  H   -0.000000  -0.000000   0.001439  -0.046638   0.361838   0.007889
    15  C   -0.000000  -0.000000   0.000002  -0.068589  -0.051943   0.323894
    16  H    0.000000   0.000000  -0.000000   0.004900  -0.037414   0.007690
    17  H    0.000000   0.000000  -0.000000   0.002451   0.004520  -0.036673
              13         14         15         16         17
     1  C    0.000001  -0.000001  -0.000000  -0.000000   0.000000
     2  C   -0.000002   0.000001   0.000001   0.000000  -0.000000
     3  C    0.000226   0.002165  -0.000056  -0.000000   0.000001
     4  C    0.005125  -0.006951   0.003156  -0.000117  -0.000061
     5  N   -0.000129   0.000032   0.000055   0.000000  -0.000000
     6  H    0.000010  -0.000005  -0.000087  -0.000000   0.000001
     7  H   -0.000000  -0.000000  -0.000000   0.000000   0.000000
     8  H    0.000000  -0.000000  -0.000000   0.000000   0.000000
     9  H   -0.000012   0.001439   0.000002  -0.000000  -0.000000
    10  C   -0.024897  -0.046638  -0.068589   0.004900   0.002451
    11  C    0.507111   0.361838  -0.051943  -0.037414   0.004520
    12  S   -0.088513   0.007889   0.323894   0.007690  -0.036673
    13  C    4.834822  -0.044912   0.586482   0.358981  -0.020986
    14  H   -0.044912   0.581744   0.006253  -0.002179  -0.000113
    15  C    0.586482   0.006253   5.240027  -0.047496   0.356148
    16  H    0.358981  -0.002179  -0.047496   0.578512  -0.003337
    17  H   -0.020986  -0.000113   0.356148  -0.003337   0.527718
 Mulliken charges:
               1
     1  C    0.034476
     2  C   -0.184633
     3  C   -0.198045
     4  C    0.308092
     5  N   -0.627739
     6  H    0.338649
     7  H    0.145396
     8  H    0.129925
     9  H    0.129446
    10  C   -0.197580
    11  C   -0.122845
    12  S    0.255780
    13  C   -0.113307
    14  H    0.139439
    15  C   -0.347846
    16  H    0.140460
    17  H    0.170331
 Sum of Mulliken charges =  -0.00000
 Mulliken charges with hydrogens summed into heavy atoms:
               1
     1  C    0.179872
     2  C   -0.054708
     3  C   -0.068599
     4  C    0.308092
     5  N   -0.289090
    10  C   -0.197580
    11  C    0.016594
    12  S    0.255780
    13  C    0.027154
    15  C   -0.177515
 Electronic spatial extent (au):  <R**2>=           1778.2967
 Charge=             -0.0000 electrons
 Dipole moment (field-independent basis, Debye):
    X=              0.4240    Y=             -0.9752    Z=              0.3101  Tot=              1.1077
 Quadrupole moment (field-independent basis, Debye-Ang):
   XX=            -57.3961   YY=            -56.3731   ZZ=            -69.8094
   XY=              2.7871   XZ=             -0.2500   YZ=             -0.9460
 Traceless Quadrupole moment (field-independent basis, Debye-Ang):
   XX=              3.7967   YY=              4.8198   ZZ=             -8.6165
   XY=              2.7871   XZ=             -0.2500   YZ=             -0.9460
 Octapole moment (field-independent basis, Debye-Ang**2):
  XXX=             10.7128  YYY=             -4.2002  ZZZ=              0.3060  XYY=             -5.3241
  XXY=             -7.4095  XXZ=              0.3763  XZZ=              1.6520  YZZ=             -3.3529
  YYZ=              1.9740  XYZ=              4.2266
 Hexadecapole moment (field-independent basis, Debye-Ang**3):
 XXXX=          -1707.7069 YYYY=           -414.9200 ZZZZ=            -83.0507 XXXY=              4.4560
 XXXZ=             -1.5094 YYYX=             21.5578 YYYZ=             -4.4920 ZZZX=             -2.2618
 ZZZY=             -0.7192 XXYY=           -346.7579 XXZZ=           -367.2604 YYZZ=            -95.7556
 XXYZ=             -4.0585 YYXZ=             -0.0573 ZZXY=              0.5412
 N-N= 5.492392873845D+02 E-N=-2.887619771438D+03  KE= 7.569817458994D+02
 Calling FoFJK, ICntrl=      2127 FMM=F ISym2X=0 I1Cent= 0 IOpClX= 0 NMat=1 NMatS=1 NMatT=0.
 ***** Axes restored to original set *****
 -------------------------------------------------------------------
 Center     Atomic                   Forces (Hartrees/Bohr)
 Number     Number              X              Y              Z
 -------------------------------------------------------------------
      1        6          -0.010182912    0.000133411   -0.003199109
      2        6           0.014289276    0.015829825    0.004798355
      3        6           0.017005647    0.000655316    0.005205299
      4        6          -0.004611724    0.037257381   -0.000827989
      5        7          -0.039374154   -0.026538144   -0.012332773
      6        1           0.019205453    0.011191078    0.006344257
      7        1          -0.004055044    0.005219191   -0.000994336
      8        1           0.002310646    0.002143559    0.000728954
      9        1           0.003492063    0.001489807    0.000382343
     10        6          -0.028366913   -0.075156471    0.000712019
     11        6          -0.006438471    0.010872188   -0.000493298
     12       16           0.050631165   -0.003775984   -0.001170405
     13        6          -0.002634196   -0.007402071   -0.000955350
     14        1           0.006683175   -0.000598331    0.000605790
     15        6          -0.025538764    0.036138835    0.000982700
     16        1           0.005798374   -0.001595998   -0.000081120
     17        1           0.001786378   -0.005863589    0.000294664
 -------------------------------------------------------------------
 Cartesian Forces:  Max     0.075156471 RMS     0.018075578

 GradGradGradGradGradGradGradGradGradGradGradGradGradGradGradGradGradGrad
 Berny optimization.
 FormGI is forming the generalized inverse of G from B-inverse, IUseBI=4.
 Internal  Forces:  Max     0.047335889 RMS     0.009059761
 Search for a local minimum.
 Step number   1 out of a maximum of   96
 All quantities printed in internal units (Hartrees-Bohrs-Radians)
 Mixed Optimization -- RFO/linear search
 Second derivative matrix not updated -- first step.
 ITU=  0
     Eigenvalues ---    0.00237   0.01306   0.01407   0.01787   0.01800
     Eigenvalues ---    0.01826   0.01882   0.01941   0.01943   0.01969
     Eigenvalues ---    0.02044   0.02097   0.02255   0.02293   0.16000
     Eigenvalues ---    0.16000   0.16000   0.16000   0.16000   0.16000
     Eigenvalues ---    0.16000   0.22000   0.22141   0.23193   0.23856
     Eigenvalues ---    0.25000   0.25000   0.28519   0.34641   0.34642
     Eigenvalues ---    0.34897   0.35021   0.35418   0.35419   0.37478
     Eigenvalues ---    0.37651   0.37658   0.40213   0.40582   0.44231
     Eigenvalues ---    0.45698   0.46435   0.46623   0.49231   0.50570
 RFO step:  Lambda=-1.91594847D-02 EMin= 2.36824288D-03
 Linear search not attempted -- first point.
 Iteration  1 RMS(Cart)=  0.03510221 RMS(Int)=  0.00023494
 Iteration  2 RMS(Cart)=  0.00029886 RMS(Int)=  0.00005814
 Iteration  3 RMS(Cart)=  0.00000008 RMS(Int)=  0.00005814
 Variable       Old X    -DE/DX   Delta X   Delta X   Delta X     New X
                                 (Linear)    (Quad)   (Total)
    R1        2.64892  -0.02300   0.00000  -0.04878  -0.04878   2.60014
    R2        2.63012  -0.01505   0.00000  -0.03109  -0.03109   2.59902
    R3        2.05842  -0.00652   0.00000  -0.01771  -0.01771   2.04071
    R4        2.71151  -0.00993   0.00000  -0.02322  -0.02321   2.68830
    R5        2.05001  -0.00297   0.00000  -0.00796  -0.00796   2.04205
    R6        2.64911  -0.01991   0.00000  -0.04188  -0.04187   2.60724
    R7        2.05000  -0.00323   0.00000  -0.00866  -0.00866   2.04134
    R8        2.63013  -0.01233   0.00000  -0.02530  -0.02530   2.60483
    R9        2.91018  -0.04734   0.00000  -0.15553  -0.15553   2.75465
   R10        1.85994   0.02310   0.00000   0.04401   0.04401   1.90395
   R11        2.60258   0.00313   0.00000   0.00546   0.00544   2.60802
   R12        3.15994   0.03545   0.00000   0.08863   0.08870   3.24864
   R13        2.70631  -0.00235   0.00000  -0.00894  -0.00902   2.69729
   R14        2.06260  -0.00582   0.00000  -0.01592  -0.01592   2.04668
   R15        3.16005   0.03161   0.00000   0.07858   0.07863   3.23868
   R16        2.60252  -0.00098   0.00000  -0.00337  -0.00341   2.59911
   R17        2.06262  -0.00540   0.00000  -0.01477  -0.01477   2.04785
   R18        2.05641  -0.00473   0.00000  -0.01280  -0.01280   2.04360
    A1        1.89225  -0.00398   0.00000  -0.01796  -0.01797   1.87427
    A2        2.27063   0.00350   0.00000   0.01744   0.01744   2.28807
    A3        2.12031   0.00047   0.00000   0.00052   0.00052   2.12083
    A4        1.87077   0.00219   0.00000   0.00895   0.00895   1.87972
    A5        2.20681  -0.00241   0.00000  -0.01179  -0.01179   2.19501
    A6        2.20561   0.00021   0.00000   0.00284   0.00284   2.20845
    A7        1.87074   0.00153   0.00000   0.00688   0.00689   1.87763
    A8        2.20561   0.00122   0.00000   0.00765   0.00764   2.21325
    A9        2.20683  -0.00275   0.00000  -0.01453  -0.01454   2.19229
   A10        1.89218  -0.00568   0.00000  -0.02131  -0.02131   1.87086
   A11        2.27088   0.00166   0.00000   0.00627   0.00627   2.27716
   A12        2.12012   0.00402   0.00000   0.01504   0.01504   2.13516
   A13        1.89884   0.00593   0.00000   0.02345   0.02344   1.92228
   A14        2.19207  -0.00275   0.00000  -0.01050  -0.01051   2.18157
   A15        2.19227  -0.00318   0.00000  -0.01295  -0.01295   2.17931
   A16        2.19350   0.00429   0.00000   0.01503   0.01501   2.20851
   A17        2.14259  -0.00169   0.00000  -0.00717  -0.00719   2.13540
   A18        1.94710  -0.00260   0.00000  -0.00785  -0.00784   1.93926
   A19        1.94642   0.00561   0.00000   0.01504   0.01490   1.96132
   A20        2.18794  -0.00624   0.00000  -0.02672  -0.02666   2.16128
   A21        2.14883   0.00064   0.00000   0.01168   0.01174   2.16057
   A22        1.63773  -0.00935   0.00000  -0.02244  -0.02226   1.61547
   A23        1.94647   0.00693   0.00000   0.01877   0.01860   1.96507
   A24        2.14883  -0.00073   0.00000   0.00587   0.00593   2.15476
   A25        2.18789  -0.00620   0.00000  -0.02464  -0.02458   2.16331
   A26        1.94706  -0.00059   0.00000  -0.00351  -0.00354   1.94352
   A27        2.14249  -0.00372   0.00000  -0.02063  -0.02063   2.12186
   A28        2.19363   0.00430   0.00000   0.02414   0.02415   2.21778
    D1        0.00001   0.00016   0.00000   0.00416   0.00412   0.00413
    D2        3.14157   0.00002   0.00000   0.00062   0.00059  -3.14102
    D3       -3.14148   0.00000   0.00000   0.00007   0.00003  -3.14145
    D4        0.00009  -0.00014   0.00000  -0.00347  -0.00350  -0.00341
    D5        0.00007  -0.00011   0.00000  -0.00297  -0.00297  -0.00290
    D6        3.14132  -0.00037   0.00000  -0.00981  -0.00980   3.13152
    D7        3.14156   0.00003   0.00000   0.00069   0.00066  -3.14097
    D8       -0.00037  -0.00023   0.00000  -0.00614  -0.00618  -0.00655
    D9       -0.00008  -0.00014   0.00000  -0.00378  -0.00382  -0.00390
   D10       -3.14156  -0.00031   0.00000  -0.00831  -0.00838   3.13325
   D11        3.14154  -0.00001   0.00000  -0.00025  -0.00026   3.14128
   D12        0.00006  -0.00018   0.00000  -0.00477  -0.00481  -0.00475
   D13        0.00012   0.00008   0.00000   0.00200   0.00199   0.00211
   D14       -3.14146   0.00007   0.00000   0.00170   0.00170  -3.13975
   D15       -3.14158   0.00025   0.00000   0.00653   0.00648  -3.13510
   D16        0.00003   0.00024   0.00000   0.00623   0.00619   0.00622
   D17       -0.00012   0.00002   0.00000   0.00056   0.00056   0.00044
   D18       -3.14137   0.00028   0.00000   0.00740   0.00739  -3.13399
   D19        3.14146   0.00003   0.00000   0.00083   0.00082  -3.14091
   D20        0.00020   0.00028   0.00000   0.00767   0.00765   0.00785
   D21        0.26780   0.00018   0.00000   0.01056   0.01054   0.27833
   D22       -2.87386   0.00041   0.00000   0.01723   0.01724  -2.85662
   D23       -2.87377   0.00018   0.00000   0.01023   0.01021  -2.86357
   D24        0.26775   0.00041   0.00000   0.01689   0.01692   0.28467
   D25        3.14101   0.00004   0.00000   0.00149   0.00145  -3.14072
   D26       -0.00029   0.00029   0.00000   0.00811   0.00804   0.00774
   D27       -0.00052  -0.00017   0.00000  -0.00453  -0.00463  -0.00514
   D28        3.14136   0.00009   0.00000   0.00208   0.00196  -3.13986
   D29       -3.14132   0.00024   0.00000   0.00546   0.00538  -3.13594
   D30        0.00022   0.00044   0.00000   0.01128   0.01116   0.01137
   D31        0.00063  -0.00027   0.00000  -0.00664  -0.00669  -0.00605
   D32       -3.14097   0.00011   0.00000   0.00289   0.00301  -3.13795
   D33       -3.14124  -0.00052   0.00000  -0.01309  -0.01328   3.12867
   D34        0.00035  -0.00014   0.00000  -0.00357  -0.00358  -0.00323
   D35        0.00015  -0.00060   0.00000  -0.01518  -0.01501  -0.01486
   D36       -3.14137  -0.00031   0.00000  -0.00772  -0.00770   3.13412
   D37       -0.00047   0.00060   0.00000   0.01489   0.01496   0.01450
   D38        3.14105   0.00029   0.00000   0.00716   0.00716  -3.13498
   D39        3.14113   0.00020   0.00000   0.00511   0.00521  -3.13685
   D40       -0.00053  -0.00010   0.00000  -0.00262  -0.00260  -0.00314
         Item               Value     Threshold  Converged?
 Maximum Force            0.047336     0.000450     NO 
 RMS     Force            0.009060     0.000300     NO 
 Maximum Displacement     0.106373     0.001800     NO 
 RMS     Displacement     0.035264     0.001200     NO 
 Predicted change in Energy=-1.012067D-02
 GradGradGradGradGradGradGradGradGradGradGradGradGradGradGradGradGradGrad

                          Input orientation:                          
 ---------------------------------------------------------------------
 Center     Atomic      Atomic             Coordinates (Angstroms)
 Number     Number       Type             X           Y           Z
 ---------------------------------------------------------------------
      1          6           0        0.390900   -2.765298    0.187316
      2          6           0       -0.910881   -3.021696   -0.177139
      3          6           0       -1.571898   -1.771162   -0.328723
      4          6           0       -0.655745   -0.778709   -0.047219
      5          7           0        0.534452   -1.399704    0.265550
      6          1           0        1.383829   -0.921671    0.520811
      7          1           0        1.213739   -3.432344    0.397459
      8          1           0       -1.344670   -4.000534   -0.323482
      9          1           0       -2.601357   -1.613822   -0.615695
     10          6           0       -0.801842    0.671647   -0.047845
     11          6           0       -1.987445    1.378042   -0.041077
     12         16           0        0.550832    1.732413   -0.067207
     13          6           0       -1.778680    2.790031   -0.045062
     14          1           0       -2.965877    0.913829   -0.027406
     15          6           0       -0.445200    3.126954   -0.047042
     16          1           0       -2.585614    3.513328   -0.037605
     17          1           0       -0.024568    4.123222   -0.044366
 ---------------------------------------------------------------------
                    Distance matrix (angstroms):
                    1          2          3          4          5
     1  C    0.000000
     2  C    1.375936   0.000000
     3  C    2.259907   1.422588   0.000000
     4  C    2.257655   2.261186   1.379690   0.000000
     5  N    1.375345   2.217164   2.219877   1.378415   0.000000
     6  H    2.120398   3.187935   3.190559   2.122017   1.007529
     7  H    1.079896   2.238929   3.323649   3.276353   2.147197
     8  H    2.190645   1.080608   2.240928   3.306220   3.262265
     9  H    3.305196   2.243245   1.080228   2.192256   3.264312
    10  C    3.645617   3.697213   2.576663   1.457696   2.484833
    11  C    4.782882   4.531578   3.189499   2.534767   3.764288
    12  S    4.507745   4.974962   4.104804   2.786030   3.149787
    13  C    5.968480   5.877643   4.574681   3.741243   4.795930
    14  H    4.984980   4.442272   3.040254   2.863876   4.206015
    15  C    5.955889   6.167631   5.033918   3.911334   4.641989
    16  H    6.952076   6.747646   5.388710   4.705961   5.827916
    17  H    6.904925   7.200905   6.100725   4.942400   5.559790
                    6          7          8          9         10
     6  H    0.000000
     7  H    2.519450   0.000000
     8  H    4.199635   2.718097   0.000000
     9  H    4.201479   4.346085   2.713124   0.000000
    10  C    2.763908   4.593866   4.711678   2.963795   0.000000
    11  C    4.119453   5.794800   5.424204   3.107785   1.380107
    12  S    2.843205   5.227818   6.043615   4.629733   1.719107
    13  C    4.909013   6.918696   6.810114   4.516231   2.332760
    14  H    4.752846   6.044743   5.183332   2.620683   2.177640
    15  C    4.478746   6.780416   7.189335   5.239021   2.481074
    16  H    5.978087   7.928854   7.621009   5.159661   3.355160
    17  H    5.268202   7.669106   8.235046   6.315056   3.538013
                   11         12         13         14         15
    11  C    0.000000
    12  S    2.563029   0.000000
    13  C    1.427344   2.558452   0.000000
    14  H    1.083056   3.610943   2.220334   0.000000
    15  C    2.331791   1.713835   1.375388   3.354418   0.000000
    16  H    2.217490   3.606914   1.083677   2.627184   2.175029
    17  H    3.374746   2.459181   2.203249   4.353365   1.081429
                   16         17
    16  H    0.000000
    17  H    2.632675   0.000000
 Stoichiometry    C8H7NS
 Framework group  C1[X(C8H7NS)]
 Deg. of freedom    45
 Full point group                 C1      NOp   1
 Largest Abelian subgroup         C1      NOp   1
 Largest concise Abelian subgroup C1      NOp   1
                         Standard orientation:                         
 ---------------------------------------------------------------------
 Center     Atomic      Atomic             Coordinates (Angstroms)
 Number     Number       Type             X           Y           Z
 ---------------------------------------------------------------------
      1          6           0       -3.003345   -0.738299    0.123371
      2          6           0       -3.171679    0.607827   -0.106433
      3          6           0       -1.879652    1.197485   -0.188452
      4          6           0       -0.951114    0.194372   -0.001038
      5          7           0       -1.650629   -0.978238    0.187883
      6          1           0       -1.230857   -1.878688    0.355504
      7          1           0       -3.724119   -1.532783    0.247688
      8          1           0       -4.119060    1.117465   -0.208662
      9          1           0       -1.653455    2.238292   -0.368591
     10          6           0        0.505638    0.244430    0.014703
     11          6           0        1.287617    1.374330    0.143263
     12         16           0        1.476245   -1.165813   -0.141705
     13          6           0        2.683016    1.074994    0.119369
     14          1           0        0.887970    2.374580    0.256365
     15          6           0        2.932452   -0.270540   -0.018503
     16          1           0        3.457214    1.827837    0.209944
     17          1           0        3.899185   -0.753623   -0.057828
 ---------------------------------------------------------------------
 Rotational constants (GHZ):           3.4116009           0.7555515           0.6227987
 Standard basis: 6-31G(d) (6D, 7F)
 There are   168 symmetry adapted cartesian basis functions of A   symmetry.
 There are   168 symmetry adapted basis functions of A   symmetry.
   168 basis functions,   332 primitive gaussians,   168 cartesian basis functions
    39 alpha electrons       39 beta electrons
       nuclear repulsion energy       552.6455938237 Hartrees.
 NAtoms=   17 NActive=   17 NUniq=   17 SFac= 1.00D+00 NAtFMM=   60 NAOKFM=F Big=F
 Integral buffers will be    131072 words long.
 Raffenetti 2 integral format.
 Two-electron integral symmetry is turned on.
 Nuclear repulsion after empirical dispersion term =      552.6106417819 Hartrees.
 One-electron integrals computed using PRISM.
 NBasis=   168 RedAO= T EigKep=  7.60D-04  NBF=   168
 NBsUse=   168 1.00D-06 EigRej= -1.00D+00 NBFU=   168
 Initial guess from the checkpoint file:  "mol_opt.chk"
 B after Tr=    -0.000000    0.000000    0.000000
         Rot=    0.999998    0.002019    0.000090   -0.000325 Ang=   0.23 deg.
 ExpMin= 1.17D-01 ExpMax= 2.19D+04 ExpMxC= 3.30D+03 IAcc=3 IRadAn=         5 AccDes= 0.00D+00
 Harris functional with IExCor=  402 and IRadAn=       5 diagonalized for initial guess.
 HarFok:  IExCor=  402 AccDes= 0.00D+00 IRadAn=         5 IDoV= 1 UseB2=F ITyADJ=14
 ICtDFT=  3500011 ScaDFX=  1.000000  1.000000  1.000000  1.000000
 FoFCou: FMM=F IPFlag=           0 FMFlag=      100000 FMFlg1=           0
         NFxFlg=           0 DoJE=T BraDBF=F KetDBF=T FulRan=T
         wScrn=  0.000000 ICntrl=       500 IOpCl=  0 I1Cent=   200000004 NGrid=           0
         NMat0=    1 NMatS0=      1 NMatT0=    0 NMatD0=    1 NMtDS0=    0 NMtDT0=    0
 Petite list used in FoFCou.
 Requested convergence on RMS density matrix=1.00D-08 within 128 cycles.
 Requested convergence on MAX density matrix=1.00D-06.
 Requested convergence on             energy=1.00D-06.
 No special actions if energy rises.
 Integral accuracy reduced to 1.0D-05 until final iterations.
 Initial convergence to 1.0D-05 achieved.  Increase integral accuracy.
 SCF Done:  E(RB3LYP) =  -762.016104334     A.U. after   13 cycles
            NFock= 13  Conv=0.45D-08     -V/T= 2.0063
 Calling FoFJK, ICntrl=      2127 FMM=F ISym2X=0 I1Cent= 0 IOpClX= 0 NMat=1 NMatS=1 NMatT=0.
 ***** Axes restored to original set *****
 -------------------------------------------------------------------
 Center     Atomic                   Forces (Hartrees/Bohr)
 Number     Number              X              Y              Z
 -------------------------------------------------------------------
      1        6           0.001597058    0.001557845    0.000549099
      2        6          -0.004307011   -0.001221268   -0.001147274
      3        6          -0.002880122   -0.007128424   -0.000135279
      4        6           0.003638319    0.014357748    0.000743000
      5        7           0.003234019   -0.003480329   -0.000441789
      6        1           0.000485684    0.000685250    0.000996516
      7        1           0.000315566    0.000609604    0.000107456
      8        1          -0.000241701   -0.000430901   -0.000128353
      9        1          -0.000176674    0.000279777   -0.000618917
     10        6          -0.015437755   -0.019090692    0.000515025
     11        6           0.003105601    0.007044156   -0.000633739
     12       16           0.017599749    0.001220958   -0.000471448
     13        6           0.004170229   -0.003854404   -0.000090669
     14        1           0.000570034   -0.001382081    0.000566995
     15        6          -0.014327279    0.010914411    0.000086536
     16        1           0.000579473    0.001115096    0.000004110
     17        1           0.002074810   -0.001196746    0.000098732
 -------------------------------------------------------------------
 Cartesian Forces:  Max     0.019090692 RMS     0.005725957

 GradGradGradGradGradGradGradGradGradGradGradGradGradGradGradGradGradGrad
 Berny optimization.
 Using GEDIIS/GDIIS optimizer.
 FormGI is forming the generalized inverse of G from B-inverse, IUseBI=4.
 Internal  Forces:  Max     0.013898370 RMS     0.002502626
 Search for a local minimum.
 Step number   2 out of a maximum of   96
 All quantities printed in internal units (Hartrees-Bohrs-Radians)
 Mixed Optimization -- RFO/linear search
 Update second derivatives using D2CorX and points    1    2
 DE= -1.12D-02 DEPred=-1.01D-02 R= 1.11D+00
 TightC=F SS=  1.41D+00  RLast= 2.38D-01 DXNew= 5.0454D-01 7.1410D-01
 Trust test= 1.11D+00 RLast= 2.38D-01 DXMaxT set to 5.05D-01
 ITU=  1  0
 Use linear search instead of GDIIS.
     Eigenvalues ---    0.00237   0.01296   0.01406   0.01784   0.01799
     Eigenvalues ---    0.01824   0.01880   0.01935   0.01939   0.01970
     Eigenvalues ---    0.02039   0.02095   0.02257   0.02297   0.15510
     Eigenvalues ---    0.15999   0.15999   0.16000   0.16000   0.16000
     Eigenvalues ---    0.16016   0.22015   0.22134   0.22651   0.23468
     Eigenvalues ---    0.24704   0.25000   0.27202   0.33314   0.34642
     Eigenvalues ---    0.34731   0.34963   0.35113   0.35419   0.35494
     Eigenvalues ---    0.37545   0.37721   0.39821   0.40611   0.44156
     Eigenvalues ---    0.46469   0.46628   0.48851   0.49695   0.53860
 RFO step:  Lambda=-1.56434469D-03 EMin= 2.36734550D-03
 Quartic linear search produced a step of  0.16297.
 Iteration  1 RMS(Cart)=  0.04195444 RMS(Int)=  0.00070859
 Iteration  2 RMS(Cart)=  0.00092756 RMS(Int)=  0.00003183
 Iteration  3 RMS(Cart)=  0.00000040 RMS(Int)=  0.00003183
 Variable       Old X    -DE/DX   Delta X   Delta X   Delta X     New X
                                 (Linear)    (Quad)   (Total)
    R1        2.60014   0.00383  -0.00795   0.01404   0.00608   2.60622
    R2        2.59902   0.00004  -0.00507   0.00283  -0.00224   2.59679
    R3        2.04071  -0.00012  -0.00289   0.00147  -0.00141   2.03929
    R4        2.68830  -0.00092  -0.00378  -0.00026  -0.00405   2.68425
    R5        2.04205   0.00050  -0.00130   0.00248   0.00118   2.04324
    R6        2.60724   0.00767  -0.00682   0.02443   0.01761   2.62484
    R7        2.04134   0.00037  -0.00141   0.00213   0.00071   2.04205
    R8        2.60483   0.00321  -0.00412   0.01077   0.00666   2.61148
    R9        2.75465  -0.00504  -0.02535  -0.00341  -0.02875   2.72589
   R10        1.90395   0.00099   0.00717  -0.00207   0.00510   1.90906
   R11        2.60802  -0.00015   0.00089  -0.00096  -0.00004   2.60798
   R12        3.24864   0.01390   0.01446   0.03344   0.04792   3.29656
   R13        2.69729  -0.00080  -0.00147  -0.00311  -0.00458   2.69271
   R14        2.04668   0.00008  -0.00260   0.00195  -0.00064   2.04604
   R15        3.23868   0.01030   0.01281   0.02304   0.03584   3.27451
   R16        2.59911  -0.00466  -0.00056  -0.01155  -0.01214   2.58697
   R17        2.04785   0.00031  -0.00241   0.00259   0.00019   2.04804
   R18        2.04360  -0.00030  -0.00209   0.00036  -0.00172   2.04188
    A1        1.87427   0.00188  -0.00293   0.00989   0.00696   1.88123
    A2        2.28807  -0.00024   0.00284  -0.00101   0.00183   2.28991
    A3        2.12083  -0.00164   0.00009  -0.00887  -0.00879   2.11204
    A4        1.87972  -0.00089   0.00146  -0.00701  -0.00556   1.87416
    A5        2.19501   0.00050  -0.00192   0.00488   0.00296   2.19798
    A6        2.20845   0.00038   0.00046   0.00213   0.00260   2.21104
    A7        1.87763   0.00088   0.00112   0.00490   0.00600   1.88363
    A8        2.21325  -0.00022   0.00125  -0.00233  -0.00112   2.21213
    A9        2.19229  -0.00066  -0.00237  -0.00262  -0.00503   2.18726
   A10        1.87086  -0.00180  -0.00347  -0.00439  -0.00783   1.86303
   A11        2.27716   0.00016   0.00102  -0.00073   0.00028   2.27743
   A12        2.13516   0.00164   0.00245   0.00512   0.00756   2.14272
   A13        1.92228  -0.00007   0.00382  -0.00335   0.00044   1.92272
   A14        2.18157   0.00030  -0.00171   0.00333   0.00154   2.18311
   A15        2.17931  -0.00023  -0.00211  -0.00011  -0.00229   2.17702
   A16        2.20851   0.00425   0.00245   0.01707   0.01949   2.22800
   A17        2.13540  -0.00037  -0.00117  -0.00175  -0.00295   2.13245
   A18        1.93926  -0.00388  -0.00128  -0.01534  -0.01657   1.92269
   A19        1.96132   0.00371   0.00243   0.01370   0.01614   1.97746
   A20        2.16128  -0.00339  -0.00435  -0.01540  -0.01977   2.14150
   A21        2.16057  -0.00033   0.00191   0.00163   0.00351   2.16408
   A22        1.61547  -0.00208  -0.00363  -0.00058  -0.00421   1.61127
   A23        1.96507   0.00271   0.00303   0.00601   0.00900   1.97407
   A24        2.15476  -0.00011   0.00097   0.00400   0.00498   2.15974
   A25        2.16331  -0.00260  -0.00401  -0.01001  -0.01400   2.14931
   A26        1.94352  -0.00048  -0.00058  -0.00369  -0.00433   1.93919
   A27        2.12186  -0.00219  -0.00336  -0.01271  -0.01605   2.10581
   A28        2.21778   0.00267   0.00394   0.01645   0.02041   2.23818
    D1        0.00413  -0.00007   0.00067  -0.00609  -0.00543  -0.00131
    D2       -3.14102  -0.00009   0.00010  -0.00516  -0.00508   3.13708
    D3       -3.14145  -0.00009   0.00000  -0.00494  -0.00494   3.13679
    D4       -0.00341  -0.00010  -0.00057  -0.00401  -0.00459  -0.00801
    D5       -0.00290   0.00007  -0.00048   0.00506   0.00459   0.00169
    D6        3.13152  -0.00030  -0.00160  -0.01356  -0.01517   3.11635
    D7       -3.14097   0.00008   0.00011   0.00403   0.00414  -3.13683
    D8       -0.00655  -0.00029  -0.00101  -0.01459  -0.01563  -0.02218
    D9       -0.00390   0.00006  -0.00062   0.00501   0.00437   0.00047
   D10        3.13325  -0.00021  -0.00136  -0.00824  -0.00965   3.12360
   D11        3.14128   0.00008  -0.00004   0.00406   0.00402  -3.13788
   D12       -0.00475  -0.00019  -0.00078  -0.00919  -0.01000  -0.01476
   D13        0.00211  -0.00001   0.00032  -0.00188  -0.00157   0.00054
   D14       -3.13975  -0.00000   0.00028  -0.00089  -0.00062  -3.14037
   D15       -3.13510   0.00025   0.00106   0.01117   0.01219  -3.12291
   D16        0.00622   0.00026   0.00101   0.01216   0.01314   0.01936
   D17        0.00044  -0.00003   0.00009  -0.00192  -0.00183  -0.00138
   D18       -3.13399   0.00034   0.00120   0.01665   0.01784  -3.11615
   D19       -3.14091  -0.00004   0.00013  -0.00281  -0.00268   3.13959
   D20        0.00785   0.00032   0.00125   0.01576   0.01698   0.02483
   D21        0.27833   0.00026   0.00172   0.06576   0.06745   0.34578
   D22       -2.85662   0.00037   0.00281   0.06920   0.07203  -2.78459
   D23       -2.86357   0.00027   0.00166   0.06688   0.06852  -2.79504
   D24        0.28467   0.00038   0.00276   0.07033   0.07311   0.35778
   D25       -3.14072   0.00008   0.00024   0.00386   0.00412  -3.13660
   D26        0.00774   0.00032   0.00131   0.01374   0.01499   0.02273
   D27       -0.00514  -0.00001  -0.00075   0.00076   0.00001  -0.00513
   D28       -3.13986   0.00022   0.00032   0.01065   0.01088  -3.12898
   D29       -3.13594  -0.00009   0.00088  -0.00618  -0.00528  -3.14122
   D30        0.01137  -0.00002   0.00182  -0.00332  -0.00153   0.00984
   D31       -0.00605  -0.00001  -0.00109   0.00297   0.00189  -0.00417
   D32       -3.13795   0.00009   0.00049   0.00310   0.00366  -3.13429
   D33        3.12867  -0.00026  -0.00216  -0.00699  -0.00925   3.11942
   D34       -0.00323  -0.00016  -0.00058  -0.00685  -0.00748  -0.01070
   D35       -0.01486   0.00000  -0.00245   0.00498   0.00257  -0.01229
   D36        3.13412  -0.00009  -0.00125  -0.00167  -0.00283   3.13128
   D37        0.01450   0.00002   0.00244  -0.00537  -0.00294   0.01156
   D38       -3.13498   0.00009   0.00117   0.00157   0.00278  -3.13220
   D39       -3.13685  -0.00007   0.00085  -0.00542  -0.00458  -3.14143
   D40       -0.00314   0.00001  -0.00042   0.00152   0.00114  -0.00200
         Item               Value     Threshold  Converged?
 Maximum Force            0.013898     0.000450     NO 
 RMS     Force            0.002503     0.000300     NO 
 Maximum Displacement     0.175295     0.001800     NO 
 RMS     Displacement     0.042086     0.001200     NO 
 Predicted change in Energy=-1.096680D-03
 GradGradGradGradGradGradGradGradGradGradGradGradGradGradGradGradGradGrad

                          Input orientation:                          
 ---------------------------------------------------------------------
 Center     Atomic      Atomic             Coordinates (Angstroms)
 Number     Number       Type             X           Y           Z
 ---------------------------------------------------------------------
      1          6           0        0.381991   -2.766295    0.205605
      2          6           0       -0.909322   -3.028375   -0.201691
      3          6           0       -1.564849   -1.778773   -0.364287
      4          6           0       -0.656235   -0.775597   -0.052194
      5          7           0        0.526285   -1.402462    0.291957
      6          1           0        1.365890   -0.925000    0.588028
      7          1           0        1.201081   -3.428085    0.441587
      8          1           0       -1.335852   -4.007958   -0.367691
      9          1           0       -2.582929   -1.620359   -0.690057
     10          6           0       -0.808227    0.658854   -0.052196
     11          6           0       -1.982459    1.382253   -0.002090
     12         16           0        0.559736    1.738083   -0.136461
     13          6           0       -1.777284    2.792139   -0.024821
     14          1           0       -2.955978    0.913229    0.065356
     15          6           0       -0.455141    3.141695   -0.086574
     16          1           0       -2.580995    3.518166    0.013962
     17          1           0       -0.025738    4.133012   -0.107165
 ---------------------------------------------------------------------
                    Distance matrix (angstroms):
                    1          2          3          4          5
     1  C    0.000000
     2  C    1.379154   0.000000
     3  C    2.256139   1.420443   0.000000
     4  C    2.259924   2.271875   1.389008   0.000000
     5  N    1.374161   2.224466   2.223759   1.381938   0.000000
     6  H    2.122421   3.197566   3.197664   2.126310   1.010230
     7  H    1.079148   2.242181   3.319643   3.275536   2.140301
     8  H    2.195765   1.081234   2.240919   3.318069   3.269755
     9  H    3.302444   2.240975   1.080606   2.198328   3.267880
    10  C    3.635207   3.691643   2.571362   1.442481   2.479594
    11  C    4.779562   4.543689   3.208998   2.533317   3.759640
    12  S    4.520844   4.988137   4.115099   2.793613   3.169808
    13  C    5.967559   5.887532   4.588421   3.739818   4.795983
    14  H    4.969971   4.449310   3.060508   2.855656   4.188070
    15  C    5.974154   6.187835   5.051691   3.922601   4.664316
    16  H    6.950573   6.760044   5.406772   4.705898   5.826238
    17  H    6.918418   7.216310   6.114260   4.949241   5.577230
                    6          7          8          9         10
     6  H    0.000000
     7  H    2.512775   0.000000
     8  H    4.209209   2.725292   0.000000
     9  H    4.208349   4.343642   2.712886   0.000000
    10  C    2.765007   4.580852   4.707129   2.958251   0.000000
    11  C    4.108904   5.785423   5.441153   3.138399   1.380086
    12  S    2.875201   5.237819   6.055057   4.632704   1.744465
    13  C    4.906348   6.912263   6.823031   4.534507   2.343230
    14  H    4.725549   6.022433   5.199079   2.669997   2.165955
    15  C    4.506579   6.795883   7.209176   5.250604   2.508057
    16  H    5.970693   7.920692   7.637970   5.186529   3.364929
    17  H    5.291825   7.679609   8.249828   6.322995   3.561612
                   11         12         13         14         15
    11  C    0.000000
    12  S    2.570491   0.000000
    13  C    1.424919   2.566157   0.000000
    14  H    1.082716   3.616817   2.219855   0.000000
    15  C    2.331410   1.732799   1.368965   3.353108   0.000000
    16  H    2.218248   3.613242   1.083776   2.632289   2.161272
    17  H    3.377346   2.465628   2.207403   4.356957   1.080518
                   16         17
    16  H    0.000000
    17  H    2.630978   0.000000
 Stoichiometry    C8H7NS
 Framework group  C1[X(C8H7NS)]
 Deg. of freedom    45
 Full point group                 C1      NOp   1
 Largest Abelian subgroup         C1      NOp   1
 Largest concise Abelian subgroup C1      NOp   1
                         Standard orientation:                         
 ---------------------------------------------------------------------
 Center     Atomic      Atomic             Coordinates (Angstroms)
 Number     Number       Type             X           Y           Z
 ---------------------------------------------------------------------
      1          6           0       -3.004264   -0.733845    0.154435
      2          6           0       -3.179240    0.602436   -0.138488
      3          6           0       -1.888798    1.188144   -0.235251
      4          6           0       -0.948904    0.193085    0.000969
      5          7           0       -1.653404   -0.972428    0.235515
      6          1           0       -1.233572   -1.863731    0.458862
      7          1           0       -3.719328   -1.526334    0.313198
      8          1           0       -4.127837    1.103915   -0.271717
      9          1           0       -1.662417    2.218653   -0.468733
     10          6           0        0.492206    0.252086    0.022661
     11          6           0        1.288021    1.368491    0.180640
     12         16           0        1.483370   -1.169615   -0.176129
     13          6           0        2.682219    1.076025    0.147943
     14          1           0        0.880962    2.360400    0.331277
     15          6           0        2.947877   -0.255267   -0.028561
     16          1           0        3.457280    1.824939    0.261870
     17          1           0        3.910127   -0.743944   -0.081374
 ---------------------------------------------------------------------
 Rotational constants (GHZ):           3.3929601           0.7505447           0.6212360
 Standard basis: 6-31G(d) (6D, 7F)
 There are   168 symmetry adapted cartesian basis functions of A   symmetry.
 There are   168 symmetry adapted basis functions of A   symmetry.
   168 basis functions,   332 primitive gaussians,   168 cartesian basis functions
    39 alpha electrons       39 beta electrons
       nuclear repulsion energy       551.2406227459 Hartrees.
 NAtoms=   17 NActive=   17 NUniq=   17 SFac= 1.00D+00 NAtFMM=   60 NAOKFM=F Big=F
 Integral buffers will be    131072 words long.
 Raffenetti 2 integral format.
 Two-electron integral symmetry is turned on.
 Nuclear repulsion after empirical dispersion term =      551.2056915923 Hartrees.
 One-electron integrals computed using PRISM.
 NBasis=   168 RedAO= T EigKep=  7.65D-04  NBF=   168
 NBsUse=   168 1.00D-06 EigRej= -1.00D+00 NBFU=   168
 Initial guess from the checkpoint file:  "mol_opt.chk"
 B after Tr=    -0.000000   -0.000000   -0.000000
         Rot=    1.000000    0.000534    0.000018   -0.000676 Ang=   0.10 deg.
 ExpMin= 1.17D-01 ExpMax= 2.19D+04 ExpMxC= 3.30D+03 IAcc=3 IRadAn=         5 AccDes= 0.00D+00
 Harris functional with IExCor=  402 and IRadAn=       5 diagonalized for initial guess.
 HarFok:  IExCor=  402 AccDes= 0.00D+00 IRadAn=         5 IDoV= 1 UseB2=F ITyADJ=14
 ICtDFT=  3500011 ScaDFX=  1.000000  1.000000  1.000000  1.000000
 FoFCou: FMM=F IPFlag=           0 FMFlag=      100000 FMFlg1=           0
         NFxFlg=           0 DoJE=T BraDBF=F KetDBF=T FulRan=T
         wScrn=  0.000000 ICntrl=       500 IOpCl=  0 I1Cent=   200000004 NGrid=           0
         NMat0=    1 NMatS0=      1 NMatT0=    0 NMatD0=    1 NMtDS0=    0 NMtDT0=    0
 Petite list used in FoFCou.
 Requested convergence on RMS density matrix=1.00D-08 within 128 cycles.
 Requested convergence on MAX density matrix=1.00D-06.
 Requested convergence on             energy=1.00D-06.
 No special actions if energy rises.
 Integral accuracy reduced to 1.0D-05 until final iterations.
 Initial convergence to 1.0D-05 achieved.  Increase integral accuracy.
 SCF Done:  E(RB3LYP) =  -762.017342673     A.U. after   12 cycles
            NFock= 12  Conv=0.75D-08     -V/T= 2.0064
 Calling FoFJK, ICntrl=      2127 FMM=F ISym2X=0 I1Cent= 0 IOpClX= 0 NMat=1 NMatS=1 NMatT=0.
 ***** Axes restored to original set *****
 -------------------------------------------------------------------
 Center     Atomic                   Forces (Hartrees/Bohr)
 Number     Number              X              Y              Z
 -------------------------------------------------------------------
      1        6           0.001260995    0.000764086    0.000188622
      2        6          -0.001252378    0.000950695    0.000228221
      3        6          -0.000183911   -0.001393372    0.000082429
      4        6           0.000750963   -0.001435891   -0.000004898
      5        7           0.001673980   -0.001133512   -0.000584544
      6        1          -0.001482800   -0.000422139    0.000308377
      7        1           0.000493057   -0.000305261    0.000027295
      8        1           0.000095285    0.000077766    0.000045734
      9        1          -0.000053672    0.000441829   -0.000433491
     10        6          -0.007119642    0.000654401    0.000886443
     11        6           0.001872529    0.000926109   -0.000311705
     12       16           0.006575481    0.000873303   -0.000970341
     13        6           0.001154387   -0.000837342   -0.000466847
     14        1          -0.000503463   -0.000559360    0.000358482
     15        6          -0.003942087    0.001345144    0.000577202
     16        1          -0.000415762    0.000246968   -0.000078842
     17        1           0.001077037   -0.000193426    0.000147862
 -------------------------------------------------------------------
 Cartesian Forces:  Max     0.007119642 RMS     0.001659063

 GradGradGradGradGradGradGradGradGradGradGradGradGradGradGradGradGradGrad
 Berny optimization.
 Using GEDIIS/GDIIS optimizer.
 FormGI is forming the generalized inverse of G from B-inverse, IUseBI=4.
 Internal  Forces:  Max     0.004615762 RMS     0.000805164
 Search for a local minimum.
 Step number   3 out of a maximum of   96
 All quantities printed in internal units (Hartrees-Bohrs-Radians)
 Mixed Optimization -- En-DIIS/RFO-DIIS
 Update second derivatives using D2CorX and points    1    2    3
 DE= -1.24D-03 DEPred=-1.10D-03 R= 1.13D+00
 TightC=F SS=  1.41D+00  RLast= 1.73D-01 DXNew= 8.4853D-01 5.1865D-01
 Trust test= 1.13D+00 RLast= 1.73D-01 DXMaxT set to 5.19D-01
 ITU=  1  1  0
 Use linear search instead of GDIIS.
     Eigenvalues ---    0.00235   0.01292   0.01397   0.01755   0.01787
     Eigenvalues ---    0.01825   0.01886   0.01924   0.01937   0.01968
     Eigenvalues ---    0.02030   0.02092   0.02266   0.02299   0.14224
     Eigenvalues ---    0.15992   0.15997   0.15998   0.16000   0.16014
     Eigenvalues ---    0.16087   0.21475   0.22214   0.22489   0.23506
     Eigenvalues ---    0.24651   0.25062   0.27834   0.32177   0.34644
     Eigenvalues ---    0.34768   0.34989   0.35286   0.35437   0.35560
     Eigenvalues ---    0.37565   0.37808   0.39836   0.40749   0.44142
     Eigenvalues ---    0.46561   0.47031   0.49019   0.50039   0.53640
 RFO step:  Lambda=-2.99891979D-04 EMin= 2.34719539D-03
 Quartic linear search produced a step of  0.25443.
 Iteration  1 RMS(Cart)=  0.05016826 RMS(Int)=  0.00101868
 Iteration  2 RMS(Cart)=  0.00128394 RMS(Int)=  0.00002771
 Iteration  3 RMS(Cart)=  0.00000098 RMS(Int)=  0.00002771
 Variable       Old X    -DE/DX   Delta X   Delta X   Delta X     New X
                                 (Linear)    (Quad)   (Total)
    R1        2.60622   0.00115   0.00155   0.00110   0.00264   2.60887
    R2        2.59679  -0.00088  -0.00057  -0.00278  -0.00334   2.59345
    R3        2.03929   0.00057  -0.00036   0.00176   0.00140   2.04070
    R4        2.68425  -0.00049  -0.00103  -0.00153  -0.00259   2.68166
    R5        2.04324  -0.00012   0.00030  -0.00075  -0.00045   2.04279
    R6        2.62484   0.00028   0.00448  -0.00257   0.00190   2.62675
    R7        2.04205   0.00025   0.00018   0.00055   0.00074   2.04278
    R8        2.61148   0.00087   0.00169   0.00078   0.00249   2.61398
    R9        2.72589   0.00258  -0.00732   0.01129   0.00397   2.72987
   R10        1.90906  -0.00134   0.00130  -0.00283  -0.00154   1.90752
   R11        2.60798  -0.00135  -0.00001  -0.00327  -0.00326   2.60472
   R12        3.29656   0.00462   0.01219   0.01079   0.02299   3.31955
   R13        2.69271  -0.00047  -0.00117  -0.00157  -0.00274   2.68997
   R14        2.04604   0.00072  -0.00016   0.00225   0.00209   2.04813
   R15        3.27451   0.00219   0.00912   0.00435   0.01346   3.28797
   R16        2.58697  -0.00058  -0.00309  -0.00021  -0.00331   2.58366
   R17        2.04804   0.00047   0.00005   0.00130   0.00134   2.04938
   R18        2.04188   0.00025  -0.00044   0.00079   0.00035   2.04223
    A1        1.88123  -0.00050   0.00177  -0.00416  -0.00238   1.87886
    A2        2.28991   0.00030   0.00047   0.00193   0.00238   2.29229
    A3        2.11204   0.00020  -0.00224   0.00221  -0.00005   2.11199
    A4        1.87416   0.00047  -0.00141   0.00353   0.00208   1.87624
    A5        2.19798  -0.00030   0.00075  -0.00244  -0.00169   2.19628
    A6        2.21104  -0.00017   0.00066  -0.00112  -0.00047   2.21058
    A7        1.88363  -0.00022   0.00153  -0.00184  -0.00034   1.88329
    A8        2.21213   0.00052  -0.00029   0.00401   0.00371   2.21585
    A9        2.18726  -0.00030  -0.00128  -0.00220  -0.00348   2.18378
   A10        1.86303  -0.00014  -0.00199  -0.00009  -0.00206   1.86097
   A11        2.27743   0.00010   0.00007   0.00056   0.00062   2.27805
   A12        2.14272   0.00004   0.00192  -0.00047   0.00144   2.14416
   A13        1.92272   0.00039   0.00011   0.00257   0.00263   1.92535
   A14        2.18311   0.00006   0.00039   0.00029   0.00057   2.18368
   A15        2.17702  -0.00046  -0.00058  -0.00329  -0.00398   2.17304
   A16        2.22800   0.00130   0.00496   0.00399   0.00892   2.23692
   A17        2.13245  -0.00165  -0.00075  -0.00811  -0.00888   2.12357
   A18        1.92269   0.00035  -0.00421   0.00403  -0.00020   1.92249
   A19        1.97746   0.00035   0.00411  -0.00115   0.00293   1.98039
   A20        2.14150  -0.00046  -0.00503  -0.00054  -0.00558   2.13592
   A21        2.16408   0.00011   0.00089   0.00160   0.00248   2.16656
   A22        1.61127  -0.00186  -0.00107  -0.00722  -0.00832   1.60294
   A23        1.97407   0.00046   0.00229   0.00007   0.00231   1.97638
   A24        2.15974  -0.00033   0.00127  -0.00175  -0.00048   2.15927
   A25        2.14931  -0.00014  -0.00356   0.00158  -0.00198   2.14733
   A26        1.93919   0.00070  -0.00110   0.00401   0.00285   1.94204
   A27        2.10581  -0.00143  -0.00408  -0.00838  -0.01245   2.09336
   A28        2.23818   0.00073   0.00519   0.00436   0.00956   2.24775
    D1       -0.00131   0.00016  -0.00138   0.01111   0.00973   0.00842
    D2        3.13708   0.00001  -0.00129   0.00136   0.00006   3.13714
    D3        3.13679   0.00005  -0.00126   0.00401   0.00274   3.13953
    D4       -0.00801  -0.00011  -0.00117  -0.00575  -0.00693  -0.01493
    D5        0.00169  -0.00008   0.00117  -0.00541  -0.00423  -0.00253
    D6        3.11635  -0.00038  -0.00386  -0.02256  -0.02645   3.08990
    D7       -3.13683   0.00002   0.00105   0.00083   0.00189  -3.13494
    D8       -0.02218  -0.00028  -0.00398  -0.01632  -0.02033  -0.04251
    D9        0.00047  -0.00018   0.00111  -0.01284  -0.01173  -0.01126
   D10        3.12360  -0.00025  -0.00246  -0.01470  -0.01719   3.10641
   D11       -3.13788  -0.00003   0.00102  -0.00299  -0.00196  -3.13985
   D12       -0.01476  -0.00009  -0.00254  -0.00485  -0.00742  -0.02217
   D13        0.00054   0.00014  -0.00040   0.00946   0.00905   0.00959
   D14       -3.14037   0.00010  -0.00016   0.00516   0.00499  -3.13538
   D15       -3.12291   0.00019   0.00310   0.01121   0.01428  -3.10863
   D16        0.01936   0.00015   0.00334   0.00690   0.01022   0.02958
   D17       -0.00138  -0.00004  -0.00046  -0.00266  -0.00312  -0.00451
   D18       -3.11615   0.00025   0.00454   0.01434   0.01885  -3.09730
   D19        3.13959  -0.00000  -0.00068   0.00123   0.00055   3.14015
   D20        0.02483   0.00029   0.00432   0.01824   0.02252   0.04735
   D21        0.34578   0.00014   0.01716   0.07209   0.08925   0.43503
   D22       -2.78459   0.00030   0.01833   0.08382   0.10214  -2.68244
   D23       -2.79504   0.00010   0.01743   0.06719   0.08462  -2.71042
   D24        0.35778   0.00025   0.01860   0.07891   0.09751   0.45529
   D25       -3.13660   0.00007   0.00105   0.00483   0.00592  -3.13068
   D26        0.02273   0.00018   0.00381   0.01035   0.01417   0.03691
   D27       -0.00513  -0.00008   0.00000  -0.00581  -0.00582  -0.01095
   D28       -3.12898   0.00003   0.00277  -0.00029   0.00243  -3.12655
   D29       -3.14122   0.00008  -0.00134   0.00331   0.00202  -3.13920
   D30        0.00984   0.00020  -0.00039   0.01319   0.01275   0.02259
   D31       -0.00417  -0.00014   0.00048  -0.00754  -0.00705  -0.01121
   D32       -3.13429   0.00003   0.00093   0.00181   0.00277  -3.13152
   D33        3.11942  -0.00026  -0.00235  -0.01318  -0.01556   3.10386
   D34       -0.01070  -0.00008  -0.00190  -0.00383  -0.00574  -0.01645
   D35       -0.01229  -0.00028   0.00065  -0.01756  -0.01685  -0.02914
   D36        3.13128  -0.00016  -0.00072  -0.00944  -0.01016   3.12113
   D37        0.01156   0.00030  -0.00075   0.01743   0.01671   0.02827
   D38       -3.13220   0.00017   0.00071   0.00852   0.00923  -3.12297
   D39       -3.14143   0.00013  -0.00116   0.00812   0.00698  -3.13445
   D40       -0.00200  -0.00000   0.00029  -0.00079  -0.00050  -0.00250
         Item               Value     Threshold  Converged?
 Maximum Force            0.004616     0.000450     NO 
 RMS     Force            0.000805     0.000300     NO 
 Maximum Displacement     0.209465     0.001800     NO 
 RMS     Displacement     0.050330     0.001200     NO 
 Predicted change in Energy=-1.985406D-04
 GradGradGradGradGradGradGradGradGradGradGradGradGradGradGradGradGradGrad

                          Input orientation:                          
 ---------------------------------------------------------------------
 Center     Atomic      Atomic             Coordinates (Angstroms)
 Number     Number       Type             X           Y           Z
 ---------------------------------------------------------------------
      1          6           0        0.377149   -2.767183    0.225846
      2          6           0       -0.901564   -3.030314   -0.223135
      3          6           0       -1.552554   -1.783583   -0.411937
      4          6           0       -0.660266   -0.777834   -0.059186
      5          7           0        0.511883   -1.404896    0.323255
      6          1           0        1.330778   -0.925556    0.667590
      7          1           0        1.190466   -3.426911    0.489359
      8          1           0       -1.318540   -4.010513   -0.407246
      9          1           0       -2.554310   -1.623415   -0.785275
     10          6           0       -0.817142    0.658205   -0.058130
     11          6           0       -1.982031    1.387686    0.045626
     12         16           0        0.558270    1.736400   -0.235579
     13          6           0       -1.775550    2.795299   -0.001914
     14          1           0       -2.950580    0.919143    0.176200
     15          6           0       -0.459377    3.143517   -0.127221
     16          1           0       -2.575189    3.523933    0.074125
     17          1           0       -0.021468    4.130548   -0.171110
 ---------------------------------------------------------------------
                    Distance matrix (angstroms):
                    1          2          3          4          5
     1  C    0.000000
     2  C    1.380554   0.000000
     3  C    2.257872   1.419074   0.000000
     4  C    2.261633   2.271293   1.390015   0.000000
     5  N    1.372395   2.222242   2.223917   1.383257   0.000000
     6  H    2.120409   3.194800   3.196121   2.124684   1.009417
     7  H    1.079891   2.245334   3.322200   3.277761   2.139301
     8  H    2.195913   1.080997   2.239196   3.317331   3.267004
     9  H    3.305151   2.242083   1.080995   2.197638   3.267740
[...]
   zx         0.249858D+02      0.370251D+01      0.411959D+01
   zy         0.235935D+02      0.349620D+01      0.389005D+01
   zz         0.838315D+02      0.124225D+02      0.138219D+02

 ----------------------------------------------------------------------
 Unable to Open any file for archive entry.
 1\1\GINC-DESKTOP-ATGL590\Freq\RB3LYP\6-31G(d)\C8H7N1S1\ICCAS\15-Apr-20
 22\0\\#N Geom=AllCheck Guess=TCheck SCRF=Check GenChk RB3LYP/6-31G(d) 
 Freq\\Optimize at B3LYP-D3(BJ)/6-31G* level\\0,1\C,0.3779690582,-2.763
 2651272,0.2283206184\C,-0.8959955559,-3.0331083996,-0.2298176712\C,-1.
 5542054935,-1.7888125495,-0.4167819545\C,-0.666604426,-0.7807489821,-0
 .0642151712\N,0.50980182,-1.3993274536,0.3176353233\H,1.3064521869,-0.
 9147097942,0.7029024128\H,1.1921555277,-3.4207470529,0.4947399397\H,-1
 .3043643507,-4.0156710463,-0.4214062597\H,-2.5528823439,-1.6305420291,
 -0.7990186974\C,-0.8246597657,0.6564536762,-0.0612790339\C,-1.98328465
 9,1.3893301824,0.0555153666\S,0.555461513,1.7285357963,-0.252327925\C,
 -1.7708219969,2.7984372928,0.0052668452\H,-2.9524328318,0.9260026018,0
 .2003682701\C,-0.454976964,3.1389336755,-0.1397332648\H,-2.5676959322,
 3.5290847652,0.0903125474\H,-0.0139418062,4.1246821943,-0.1892127259\\
 Version=ES64L-G16RevC.01\State=1-A\HF=-762.0176008\RMSD=4.748e-09\RMSF
 =8.394e-05\ZeroPoint=0.1303106\Thermal=0.1384938\ETot=-761.879107\HTot
 =-761.8781628\GTot=-761.9212545\Dipole=0.2870544,0.1219759,0.2857222\D
 ipoleDeriv=0.1573959,0.0177132,0.0849849,0.2700521,-0.332385,0.0973158
 ,0.0842237,-0.0101894,-0.0820019,-0.1310124,0.2657615,0.023417,0.02943
 48,-0.0729739,0.0150808,0.0067321,0.1444834,-0.1770347,-0.0353009,-0.0
 148052,0.0584847,-0.0853121,0.1637789,-0.0169645,0.0642455,-0.031624,-
 0.1568283,0.2164093,-0.021511,0.1108909,0.0350768,-0.278883,0.0007716,
 0.0832004,-0.061231,0.0716056,-0.4604647,-0.3331601,-0.0698437,-0.2834
 007,0.0003572,-0.0819051,-0.0355249,0.0008366,-0.2695594,0.2366,-0.036
 064,-0.0246938,-0.0432576,0.1853294,-0.0167187,-0.0386735,-0.0435758,0
 .2776602,0.0006757,0.0723335,-0.0538708,0.0392518,0.0325886,0.0105887,
 -0.0442871,-0.0024412,0.1391557,0.0768648,-0.0414609,-0.0248547,-0.045
 3841,-0.0836603,-0.0243983,-0.022732,-0.0210044,0.1299415,-0.0249709,0
 .0265734,-0.0622619,0.0545961,0.0826819,0.0144289,-0.0570035,0.0029998
 ,0.1130694,0.3142992,0.0776667,-0.0921046,0.1199493,0.6934291,-0.02101
 14,-0.0728626,-0.0319605,-0.0690794,-0.1523961,0.2462979,-0.0062575,0.
 1433315,-0.2191455,-0.0297425,-0.0024013,0.0049315,-0.1321753,-0.27368
 16,-0.1016102,0.035322,0.0772988,-0.0259834,-0.0072351,0.0306104,0.034
 2877,0.0604312,-0.1100258,-0.120149,0.0154889,-0.1092121,0.1166335,0.0
 104777,-0.0026997,0.0639392,-0.1021102,-0.0363281,-0.0724738,0.0283021
 ,-0.0568481,0.054102,0.0081727,0.0221072,-0.0051051,0.1372562,0.178373
 6,-0.0767001,-0.0528069,-0.1915612,-0.2865983,0.0429041,-0.0394725,0.0
 043987,-0.2467978,-0.0186346,0.1094475,0.0179355,0.0695561,-0.007992,-
 0.0053217,0.0174021,-0.0148322,0.1392536,0.0621965,0.0021405,0.0118678
 ,-0.0235715,-0.0212791,0.0035568,0.0071358,-0.0339134,0.1672134\Polar=
 104.1741257,-6.5799614,166.9072669,5.1134427,0.0193338,43.5114993\Quad
 rupole=2.850967,2.745048,-5.5960149,-2.2054804,1.9574497,-0.5080044\PG
 =C01 [X(C8H7N1S1)]\NImag=0\\0.74268926,-0.11807729,0.66901541,0.223874
 97,-0.02173891,0.18346466,-0.33377367,-0.04345111,-0.09906942,0.599607
 94,-0.06296573,-0.11456108,-0.02434047,0.11609221,0.77690053,-0.099447
 67,-0.01725087,-0.09457842,0.17794929,0.06943333,0.17812800,-0.0450412
 5,0.01179386,-0.01964504,-0.14366775,0.09001278,-0.02868671,0.76152081
 ,0.06691937,0.01256828,0.02333516,0.05841947,-0.25350408,0.01135685,-0
 .01414290,0.57775440,-0.01736515,0.00554608,0.00568464,-0.03089698,0.0
 2438842,-0.06669062,0.24082961,0.01010390,0.20495050,-0.02485224,0.046
 30870,-0.01099793,0.02740740,-0.03411345,0.00599708,-0.20747874,-0.112
 92563,-0.05652499,0.56620597,0.01784449,-0.07375433,0.00286312,0.02261
 215,-0.06923960,0.00438852,-0.12174655,-0.21582773,-0.05102838,0.01020
 935,0.79929106,-0.01246674,0.01509355,0.01072027,0.00593012,-0.0146151
 0,0.01321847,-0.05362819,-0.04429600,-0.08849885,0.13742944,0.02913079
 ,0.18412704,-0.10273253,-0.01239659,-0.02350236,-0.04024777,-0.0219764
 6,-0.01959063,-0.07224816,-0.03661005,-0.03044304,-0.23853689,0.066033
 88,-0.05877582,0.75437375,-0.01586730,-0.32064671,-0.01238903,-0.06356
 910,-0.04343445,-0.02432276,0.00165369,-0.01060868,-0.00102639,0.07262
 974,-0.14288360,0.01658403,0.11652999,0.72383006,-0.02535544,-0.018305
 50,-0.05858330,-0.01782303,-0.01197669,0.00619506,-0.03075579,-0.01108
 739,0.00320908,-0.06469847,0.02011708,-0.07633911,0.27852188,0.0894998
 2,0.19151372,0.00273869,-0.00021981,0.00459626,0.00277903,0.00083460,0
 .00010853,-0.00410616,0.00500684,-0.00211769,-0.01390704,-0.01801773,-
 0.00510652,-0.30253504,-0.14112627,-0.14116448,0.31361431,-0.02791179,
 -0.00287168,-0.01199018,0.00103320,-0.00786734,0.00010581,0.00493358,-
 0.00128429,0.00132931,0.01018024,0.01457709,0.00634476,-0.14298924,-0.
 16149137,-0.07458819,0.15502912,0.15673630,0.00479692,0.00299180,-0.00
 536036,-0.00139627,0.00114592,0.00135021,-0.00152999,-0.00037944,0.000
 63073,0.00055081,-0.00477728,-0.00722623,-0.14579668,-0.07773005,-0.06
 922837,0.14378843,0.07802970,0.07827787,-0.23130085,0.14134660,-0.0704
 3918,-0.00690684,0.01820968,-0.00183611,-0.00419838,-0.00189632,-0.003
 16561,-0.00020103,-0.00204826,-0.00079160,0.00859903,-0.00717277,0.004
 30935,-0.00006247,0.00078455,0.00058532,0.23322848,0.13179555,-0.16610
 373,0.04212447,-0.00479933,0.01100805,-0.00134776,-0.00224444,-0.00005
 631,-0.00099058,-0.00427120,-0.00434719,-0.00178918,0.02726192,-0.0163
 8970,0.00938703,-0.00012239,0.00044853,0.00001743,-0.14962610,0.175138
 20,-0.07092232,0.04443814,-0.04267762,-0.00222393,0.00680426,-0.000452
 80,-0.00301081,-0.00044442,0.00319112,-0.00112910,-0.00093997,0.001622
 15,0.00546439,-0.00229488,-0.00230705,0.00061240,0.00037015,-0.0013938
 3,0.07126701,-0.04803833,0.04131128,-0.00144450,-0.02543326,-0.0009116
 5,-0.09795536,-0.10098514,-0.03035285,0.01114960,0.01332383,0.00516024
 ,-0.00211322,0.00355066,-0.00200787,-0.00534149,-0.00076746,-0.0038152
 7,0.00072220,-0.00143553,-0.00053772,0.00004568,0.00064251,0.00107767,
 0.09390048,0.00179419,0.00134901,0.00072975,-0.10304436,-0.30408368,-0
 .04968091,-0.01269528,-0.01240144,-0.00526104,0.00291588,-0.00354854,0
 .00084960,0.00043476,0.00085706,-0.00011974,0.00011746,0.00031217,0.00
 000437,-0.00060828,-0.00005587,-0.00006992,0.11168033,0.31736660,0.000
 72733,-0.00868232,-0.00205403,-0.03092731,-0.04905280,-0.03881699,0.00
 394724,0.00436415,0.00051945,-0.00225337,0.00116332,0.00296189,-0.0032
 1396,-0.00106552,0.00338283,-0.00076745,-0.00039102,0.00224425,0.00104
 050,0.00032768,-0.00254911,0.03075097,0.05365093,0.03515306,0.00005381
 ,0.00149704,-0.00119795,-0.00478892,-0.00219558,-0.00148289,-0.3078121
 1,0.03863449,-0.10827609,-0.00985674,0.00632955,-0.00339138,-0.0010916
 7,-0.00240126,-0.00206591,-0.00012686,0.00061119,-0.00087006,-0.000033
 06,-0.00019091,-0.00058117,-0.00009166,0.00031059,0.00084572,0.3237961
 0,0.00235207,-0.00605755,0.00036154,0.02347585,0.00553272,0.00919795,0
 .04125132,-0.06511593,0.01505555,-0.01968717,0.00955099,-0.00744145,-0
 .00369356,-0.00410884,-0.00166869,-0.00106889,0.00103087,-0.00029046,0
 .00126065,0.00082823,0.00039315,-0.00108600,0.00065961,-0.00028565,-0.
 04351717,0.05697299,-0.00169277,-0.00064727,0.00270868,0.00038883,-0.0
 0118743,-0.00070329,-0.10959435,0.01455434,-0.06739773,-0.00349471,0.0
 0348591,-0.00203285,-0.00221891,-0.00013029,0.00284870,-0.00075454,-0.
 00001242,0.00239454,-0.00040834,-0.00005440,0.00123303,0.00074146,0.00
 022439,-0.00198796,0.11584660,-0.01540689,0.06548597,-0.00757896,0.000
 04227,-0.00298377,-0.00166970,-0.00415090,-0.00206070,0.01278459,-0.01
 380843,0.00202556,-0.09487326,0.00727755,-0.00834848,-0.00366164,0.040
 15619,0.00318612,0.00072058,0.00082874,0.00028979,0.00084571,0.0016363
 0,-0.00070601,0.00103830,-0.00087345,-0.00019519,-0.00060449,0.0002643
 9,0.00097365,0.53004361,0.00427369,0.00758634,0.00129490,-0.01000553,0
 .00213504,-0.00238806,-0.00514051,-0.03636517,-0.00127889,0.02725892,-
 0.27032314,-0.00017775,0.01205661,-0.02464276,0.00128275,-0.00072774,0
 .00216176,-0.00018782,-0.00016186,-0.00014560,-0.00038108,0.00020216,0
 .00002857,-0.00003907,0.00118168,0.00102171,-0.00035217,-0.13647294,0.
 65835534,-0.00293296,-0.00277547,0.00040714,-0.00088342,-0.00113313,0.
 00247086,0.00186914,-0.00601070,0.00361899,-0.00499412,-0.00579629,-0.
 04265852,0.00003960,0.01301267,-0.00306418,0.00078583,0.00006305,-0.00
 145223,-0.00063116,0.00035543,0.00229940,-0.00012338,-0.00031742,0.001
 26180,0.00109835,0.00028573,-0.00254778,-0.03232142,0.01026848,0.11307
 824,0.00168698,0.00076161,0.00044194,-0.00248146,0.00064364,-0.0006224
 1,-0.00208132,-0.00596656,0.00059601,0.00541240,0.01952582,0.00160772,
 0.00247543,-0.00477098,-0.00070685,-0.00040198,-0.00009627,0.00018299,
 -0.00013170,-0.00030390,0.00013375,0.00006907,-0.00005705,-0.00005544,
 0.00016757,-0.00002471,-0.00067956,-0.30974029,0.13348956,0.02472776,0
 .77368145,0.00081561,-0.00088038,0.00105513,0.00149665,-0.00022040,0.0
 0070341,0.00316624,0.00492107,-0.00005310,0.02878578,-0.02697807,-0.00
 252774,-0.00306399,-0.00262614,-0.00181492,0.00045992,-0.00005947,-0.0
 0030041,-0.00011277,-0.00029150,0.00019035,-0.00005772,-0.00002278,0.0
 0000152,-0.00005723,-0.00003057,-0.00024787,0.10677549,-0.16747503,-0.
 00937949,0.03683691,0.62728888,0.00026055,-0.00006631,0.00027924,-0.00
 014784,0.00063470,-0.00021708,-0.00051375,-0.00081032,0.00011416,-0.00
 010886,0.00066970,0.00300358,-0.00076114,0.00135955,0.00182970,0.00030
 028,-0.00014094,-0.00008545,0.00002944,0.00011422,-0.00006449,-0.00002
 925,0.00006320,-0.00008502,0.00019503,0.00000785,0.00004697,0.02678922
 ,-0.01471691,-0.06070584,-0.08414020,-0.01749196,0.12837021,-0.0005611
 3,-0.00133557,-0.00032933,0.00176400,-0.00002552,0.00014422,0.00093569
 ,0.00436069,0.00036456,0.00154909,-0.01145611,-0.00082754,0.00037970,0
 .00196563,0.00096397,0.00042688,-0.00033173,-0.00059767,0.00000867,0.0
 0010057,0.00006804,-0.00007998,0.00010061,0.00017761,-0.00008292,0.000
 04905,0.00023700,-0.10168643,-0.02780091,0.00826602,-0.06275250,0.0185
 9881,0.00837058,0.29791494,-0.00047264,-0.00041892,-0.00024608,-0.0003
 1178,-0.00094694,-0.00126302,0.00270526,-0.00029282,0.00254879,-0.0254
 0253,-0.01973476,0.00298938,0.00004873,0.00027840,-0.00035721,0.000573
 74,-0.00104365,0.00090800,0.00002316,0.00015320,0.00015354,0.00026110,
 -0.00018485,-0.00009776,-0.00014156,0.00010384,0.00021458,-0.06803767,
 -0.07969294,0.00744717,-0.01960961,-0.00749586,0.00209770,-0.02026473,
 0.26511087,0.00054709,0.00156070,0.00000790,-0.00118437,0.00011914,-0.
 00001220,0.00035552,-0.00157572,0.00073643,-0.00119719,0.00107510,-0.0
 0258815,0.00099373,-0.00109021,0.00026515,-0.00046403,0.00148392,-0.00
 009410,0.00001736,-0.00004676,-0.00002401,0.00000487,-0.00010173,0.000
 03252,0.00007445,0.00009274,-0.00010627,0.00874634,0.00459433,-0.03385
 620,0.00904158,-0.00263282,0.00549860,-0.03165264,-0.00041900,0.043881
 14,-0.00048882,-0.00260153,-0.00078848,0.00100744,-0.00013930,0.000705
 41,-0.00048177,-0.00039573,-0.00052584,-0.00539548,0.00292279,0.000263
 13,0.00014753,0.00309844,0.00058706,-0.00023649,-0.00058463,0.00053712
 ,0.00010596,0.00009853,-0.00022772,-0.00000280,-0.00005235,0.00010802,
 0.00016680,0.00015590,0.00014972,0.01868782,0.01237212,-0.00126841,-0.
 11233542,-0.00411062,0.00772984,-0.06215946,0.03710697,0.00730007,0.76
 720894,0.00022796,0.00003554,-0.00035607,-0.00044588,-0.00033885,-0.00
 038944,-0.00134473,-0.00142786,0.00038771,0.00236263,0.00647039,0.0012
 2699,0.00011611,-0.00151596,0.00006033,-0.00039527,0.00035891,-0.00022
 842,-0.00007185,-0.00009791,0.00005498,-0.00003776,-0.00001036,0.00003
 768,-0.00017534,-0.00020335,-0.00003903,0.05959171,-0.05227372,-0.0054
 6901,-0.04737566,-0.28001309,0.00919501,-0.00084110,-0.01266558,0.0007
 2915,-0.07631448,0.64975259,0.00031607,0.00151092,0.00022962,-0.000937
 95,-0.00006645,0.00017794,0.00005243,-0.00034782,-0.00052913,0.0009157
 6,0.00208063,0.00412475,0.00024814,-0.00192314,0.00100205,0.00000363,0
 .00011395,-0.00003204,0.00013232,-0.00009200,-0.00036143,0.00001775,-0
 .00000199,0.00001446,0.00015894,0.00015173,-0.00016873,-0.00279566,-0.
 00242569,0.00835684,0.00801065,0.00357472,-0.05865297,0.00905412,-0.00
 311102,0.00606712,-0.07188957,0.00218878,0.12799057,0.00019117,-0.0001
 4967,0.00007194,0.00008999,0.00037482,-0.00018581,0.00003955,0.0000109
 2,-0.00017436,0.00030540,-0.00119242,-0.00059421,0.00027924,0.00025559
 ,-0.00017128,0.00002660,-0.00014827,0.00008633,0.00001067,0.00001958,0
 .00007720,-0.00000816,-0.00000935,0.00001056,0.00024098,0.00016276,0.0
 0040254,-0.01744890,-0.01187056,0.00308372,-0.28766859,-0.11067931,0.0
 3857974,-0.00293115,0.00052123,0.00104833,0.00286467,0.00202687,-0.000
 53293,0.30367128,-0.00018608,0.00003179,-0.00007203,0.00005881,-0.0001
 4982,0.00015029,-0.00004602,0.00007342,-0.00000913,-0.00017044,0.00034
 667,-0.00004831,-0.00024988,0.00011866,0.00003305,-0.00000770,0.000057
 36,-0.00002083,-0.00001178,0.00001664,-0.00001878,-0.00000224,0.000025
 33,-0.00001533,0.00005891,-0.00039005,-0.00034767,0.01550192,0.0102431
 1,-0.00242492,-0.11060185,-0.11050061,0.01778712,0.00361962,-0.0003347
 0,-0.00016434,-0.02680987,-0.00370654,0.00361901,0.12005163,0.10976000
 ,-0.00000846,-0.00024567,-0.00004565,0.00007684,-0.00000569,-0.0002566
 7,0.00062465,-0.00001579,0.00017055,-0.00032224,-0.00115533,-0.0035648
 1,-0.00039613,0.00049391,-0.00036079,-0.00001458,0.00004356,0.00001055
 ,-0.00008013,0.00002163,0.00014911,-0.00000464,-0.00001550,0.00003749,
 -0.00027814,-0.00039351,0.00014523,0.00239517,0.00208927,0.00301453,0.
 03911397,0.01860432,-0.03533812,0.00025258,-0.00022554,0.00655248,0.00
 005332,-0.00078302,0.00054024,-0.04186949,-0.01855910,0.02804213,0.000
 32830,0.00215287,0.00092169,-0.00135385,0.00016745,-0.00073956,0.00096
 783,-0.00124373,0.00071695,-0.00580359,-0.00220974,0.00050267,-0.00014
 242,-0.00052946,-0.00100227,0.00029981,0.00032955,-0.00029682,-0.00000
 002,-0.00000107,0.00009807,0.00013866,-0.00006138,-0.00022013,0.000024
 67,0.00009249,0.00008166,-0.02157806,-0.00015321,0.00230408,-0.0097669
 4,-0.07228346,0.00325121,-0.07611013,0.07634633,0.00670146,-0.39629905
 ,-0.05446368,0.03754110,-0.00003328,-0.00047380,0.00058358,0.62839871,
 -0.00065274,-0.00517183,-0.00072622,0.00248015,-0.00106119,0.00141042,
 0.00165976,0.00167151,-0.00002820,-0.00444012,-0.00387032,-0.00148606,
 -0.00129520,0.00367315,-0.00015772,-0.00027105,-0.00112768,0.00088673,
 0.00010024,-0.00004513,-0.00024973,0.00011035,-0.00023838,0.00010819,0
 .00007768,0.00019151,-0.00005729,-0.01054894,-0.04306044,0.00208604,-0
 .02459051,-0.02658084,0.00409751,0.04284216,-0.13174510,-0.00500578,-0
 .08874954,-0.11572498,0.00978298,0.00117983,-0.00647436,0.00013371,0.1
 7710662,0.62983697,-0.00012018,-0.00082980,-0.00018541,0.00051057,-0.0
 0011385,0.00033522,-0.00004337,0.00056389,0.00013823,0.00010359,-0.000
 22305,-0.00058061,-0.00045882,0.00086692,0.00002883,0.00028028,-0.0008
 5086,-0.00008579,-0.00002861,0.00000103,0.00003771,0.00003556,0.000019
 40,-0.00002106,0.00001617,-0.00001009,-0.00006175,0.00413718,0.0009619
 6,0.00853374,0.00242062,0.00952703,0.00959230,0.00571853,-0.00817778,-
 0.03027125,0.03715388,0.00538157,-0.05618216,0.00025817,0.00007813,0.0
 0170539,-0.06103581,-0.02139187,0.08431546,0.00006292,-0.00008221,-0.0
 0000946,0.00001265,0.00004682,0.00000876,-0.00003599,0.00003962,0.0000
 1061,0.00055229,0.00011115,0.00006721,0.00010140,-0.00009728,-0.000084
 45,0.00000686,-0.00009786,0.00011887,-0.00000955,-0.00001053,0.0000082
 4,0.00000325,0.00000906,0.00000411,0.00000333,-0.00000415,-0.00000550,
 -0.00077579,-0.00288006,0.00043369,0.00911818,-0.00599658,-0.00101447,
 -0.00385617,0.00041951,0.00113704,-0.21225278,0.14323259,0.01947240,0.
 00009588,0.00077358,-0.00025276,-0.01542096,0.02042880,0.00196560,0.22
 154653,0.00011718,-0.00026592,0.00004850,0.00009035,-0.00005928,0.0000
 3654,0.00003103,0.00008594,0.00006575,0.00128294,0.00027224,-0.0000010
 2,-0.00008177,-0.00036145,-0.00018290,-0.00003080,-0.00005373,0.000025
 13,-0.00001389,-0.00004698,0.00001516,0.00000858,-0.00002664,0.0000047
 0,0.00000117,0.00001143,-0.00001812,-0.00146198,-0.00575790,0.00040410
 ,0.02308710,-0.01019232,-0.00282602,-0.00292470,0.00133357,0.00034666,
 0.14247953,-0.18947639,-0.01487576,-0.00058010,0.00081089,0.00000179,-
 0.00730602,0.00874027,0.00071365,-0.15538174,0.19469681,0.00003706,0.0
 0010487,-0.00005598,-0.00004563,0.00000170,-0.00001134,0.00002629,0.00
 000649,-0.00007408,0.00010646,0.00005331,0.00090800,0.00008005,-0.0003
 2649,-0.00008553,-0.00008168,0.00015098,0.00002485,0.00000171,-0.00001
 016,-0.00001478,-0.00000606,-0.00000024,-0.00000595,-0.00001245,-0.000
 01391,0.00001969,0.00033391,0.00051688,0.00225007,-0.00124167,0.000827
 72,0.00090412,0.00126886,-0.00018289,0.00702092,0.01974950,-0.01502710
 ,-0.03349610,-0.00026209,-0.00016828,-0.00180149,0.00191055,-0.0022979
 4,0.00306378,-0.02131414,0.01632101,0.02548759,0.00002281,-0.00015591,
 -0.00003225,0.00017688,0.00017006,0.00009207,-0.00024645,0.00027411,-0
 .00021380,0.00158568,0.00025343,0.00013804,0.00018151,0.00001259,0.000
 07485,0.00004108,-0.00013484,0.00008862,-0.00000030,0.00001489,-0.0000
 0571,-0.00003007,0.00003864,0.00002080,0.00003516,0.00001716,0.0000272
 2,-0.00450310,0.00437857,0.00054669,-0.00525089,-0.00057373,0.00120963
 ,0.00724091,0.01623448,-0.00146960,-0.00053709,-0.02609214,0.00023280,
 0.00027464,-0.00150479,0.00012645,-0.10364969,-0.11543748,0.00908663,0
 .00084795,0.00068315,-0.00055068,0.10381098,-0.00000654,0.00014575,0.0
 0004642,-0.00013175,-0.00010963,-0.00014029,0.00015292,-0.00019032,0.0
 0025019,-0.00092363,-0.00000116,0.00016350,-0.00012526,-0.00004766,-0.
 00012111,-0.00003403,0.00011624,-0.00009438,-0.00000101,-0.00001292,0.
 00001736,0.00002558,-0.00002582,-0.00002871,-0.00002325,0.00000239,0.0
 0002162,0.00327974,-0.00179517,-0.00061626,-0.00094751,0.00115711,0.00
 002590,-0.00665679,-0.01242377,0.00103463,0.00152377,0.00083718,-0.000
 17886,0.00002645,0.00007220,0.00001094,-0.11746977,-0.30901316,0.01348
 370,-0.00051073,0.00028945,0.00004405,0.12182180,0.32099930,-0.0002483
 2,-0.00070398,0.00003863,0.00068048,-0.00003588,-0.00013635,-0.0002968
 8,0.00068281,0.00022654,0.00061783,-0.00110720,0.00280297,-0.00019029,
 0.00048185,-0.00030679,-0.00000468,-0.00006161,0.00002540,-0.00000227,
 0.00002026,0.00000133,0.00000017,0.00002686,-0.00008764,-0.00007923,-0
 .00003559,0.00012353,0.00053430,0.00093888,-0.00100686,0.00116915,-0.0
 0003590,0.00551009,-0.00147889,-0.00227885,-0.00311008,0.00036295,0.00
 302989,0.00091896,0.00017164,0.00018112,0.00099984,0.00868155,0.012895
 19,-0.02036263,-0.00054574,-0.00007916,-0.00413376,-0.00937176,-0.0139
 1871,0.01849681\\-0.00002373,-0.00000321,-0.00009708,0.00006596,-0.000
 01742,0.00005374,0.00003595,0.00010140,0.00000691,-0.00001824,-0.00016
 130,-0.00008154,-0.00002949,0.00005985,0.00010459,-0.00000798,0.000031
 58,-0.00003113,-0.00003603,-0.00001760,0.00000041,0.00001743,-0.000007
 94,0.00001162,0.00001205,0.00002183,0.00000683,-0.00018127,0.00009402,
 0.00004856,0.00012125,-0.00029431,-0.00002082,-0.00000871,0.00006461,0
 .00000427,0.00004187,0.00029011,0.00002251,-0.00001030,0.00004070,-0.0
 0000064,0.00006106,-0.00017418,-0.00003342,-0.00001509,-0.00004637,-0.
 00000657,-0.00002473,0.00001823,0.00001175\\\@
 The archive entry for this job was punched.


 MY GROUP MEETINGS AREN'T VERY STRUCTURED.
     -- PROF. M. S. GORDON, OCT. 5, 1984
 Job cpu time:       0 days  0 hours 11 minutes 52.7 seconds.
 Elapsed time:       0 days  0 hours  1 minutes 29.4 seconds.
 File lengths (MBytes):  RWF=     65 Int=      0 D2E=      0 Chk=      4 Scr=      1
 Normal termination of Gaussian 16 at Fri Apr 15 09:53:43 2022.
