Optimize at B3LYP-D3(BJ)/6-31G* level                                   
Freq      RB3LYP                                                      6-31G(d)            
Number of atoms                            I               17
Info1-9                                    I   N=           9
          26          26        1002           0           0         100
           6          18        -502
Full Title                                 C   N=           4
Optimize at B3LYP-D3(BJ)/6-31G* level           
Route                                      C   N=           5
# Opt Freq B3LYP/6-31G* EmpiricalDispersion=GD3BJ           
Charge                                     I                0
Multiplicity                               I                1
Number of electrons                        I               78
Number of alpha electrons                  I               39
Number of beta electrons                   I               39
Number of basis functions                  I              168
Number of independent functions            I              168
Number of point charges in /Mol/           I                0
Number of translation vectors              I                0
Atomic numbers                             I   N=          17
           6           6           6           6           7           1
           1           1           1           6           6          16
           6           1           6           1           1
Nuclear charges                            R   N=          17
  6.00000000E+00  6.00000000E+00  6.00000000E+00  6.00000000E+00  7.00000000E+00
  1.00000000E+00  1.00000000E+00  1.00000000E+00  1.00000000E+00  6.00000000E+00
  6.00000000E+00  1.60000000E+01  6.00000000E+00  1.00000000E+00  6.00000000E+00
  1.00000000E+00  1.00000000E+00
Current cartesian coordinates              R   N=          51
 -5.67192666E+00 -1.37526492E+00  3.82539860E-01 -6.01154563E+00  1.10925833E+00
 -3.36593339E-01 -3.57954751E+00  2.21695784E+00 -5.80161267E-01 -1.79773891E+00
  3.81193181E-01  4.06620818E-03 -3.11900363E+00 -1.80154778E+00  5.68988456E-01
 -2.31422047E+00 -3.40560237E+00  1.21276737E+00 -7.01892180E+00 -2.85798050E+00
  7.71893634E-01 -7.80854689E+00  2.02108588E+00 -6.73605034E-01 -3.14774444E+00
  4.12184063E+00 -1.17831878E+00  9.31249779E-01  5.01608200E-01  6.39036641E-02
  2.44974866E+00  2.57845156E+00  4.40044436E-01  2.79167066E+00 -2.20534974E+00
 -4.34018139E-01  5.08258493E+00  2.01120161E+00  3.54829490E-01  1.68886625E+00
  4.44248103E+00  8.17015047E-01  5.56985633E+00 -4.90220249E-01 -6.66820520E-02
  6.55407331E+00  3.41119025E+00  6.28023773E-01  7.37670302E+00 -1.43569781E+00
 -1.88086984E-01
Number of symbols in /Mol/                 I                0
Int Atom Types                             I   N=          17
           0           0           0           0           0           0
           0           0           0           0           0           0
           0           0           0           0           0
Force Field                                I                0
Atom Types                                 C   N=          17
                                                            
                                                            
                                                            
                        
MM charges                                 R   N=          17
  0.00000000E+00  0.00000000E+00  0.00000000E+00  0.00000000E+00  0.00000000E+00
  0.00000000E+00  0.00000000E+00  0.00000000E+00  0.00000000E+00  0.00000000E+00
  0.00000000E+00  0.00000000E+00  0.00000000E+00  0.00000000E+00  0.00000000E+00
  0.00000000E+00  0.00000000E+00
Integer atomic weights                     I   N=          17
          12          12          12          12          14           1
           1           1           1          12          12          32
          12           1          12           1           1
Real atomic weights                        R   N=          17
  1.20000000E+01  1.20000000E+01  1.20000000E+01  1.20000000E+01  1.40030740E+01
  1.00782504E+00  1.00782504E+00  1.00782504E+00  1.00782504E+00  1.20000000E+01
  1.20000000E+01  3.19720718E+01  1.20000000E+01  1.00782504E+00  1.20000000E+01
  1.00782504E+00  1.00782504E+00
Atom fragment info                         I   N=          17
           0           0           0           0           0           0
           0           0           0           0           0           0
           0           0           0           0           0
Atom residue num                           I   N=          17
           0           0           0           0           0           0
           0           0           0           0           0           0
           0           0           0           0           0
Nuclear spins                              I   N=          17
           0           0           0           0           2           1
           1           1           1           0           0           0
           0           1           0           1           1
Nuclear ZEff                               R   N=          17
 -3.60000000E+00 -3.60000000E+00 -3.60000000E+00 -3.60000000E+00 -4.55000000E+00
 -1.00000000E+00 -1.00000000E+00 -1.00000000E+00 -1.00000000E+00 -3.60000000E+00
 -3.60000000E+00 -1.36000000E+01 -3.60000000E+00 -1.00000000E+00 -3.60000000E+00
 -1.00000000E+00 -1.00000000E+00
Nuclear ZNuc                               R   N=          17
  6.00000000E+00  6.00000000E+00  6.00000000E+00  6.00000000E+00  7.00000000E+00
  1.00000000E+00  1.00000000E+00  1.00000000E+00  1.00000000E+00  6.00000000E+00
  6.00000000E+00  1.60000000E+01  6.00000000E+00  1.00000000E+00  6.00000000E+00
  1.00000000E+00  1.00000000E+00
Nuclear QMom                               R   N=          17
  0.00000000E+00  0.00000000E+00  0.00000000E+00  0.00000000E+00  2.04400000E+00
  0.00000000E+00  0.00000000E+00  0.00000000E+00  0.00000000E+00  0.00000000E+00
  0.00000000E+00  0.00000000E+00  0.00000000E+00  0.00000000E+00  0.00000000E+00
  0.00000000E+00  0.00000000E+00
Nuclear GFac                               R   N=          17
  0.00000000E+00  0.00000000E+00  0.00000000E+00  0.00000000E+00  4.03761000E-01
  2.79284600E+00  2.79284600E+00  2.79284600E+00  2.79284600E+00  0.00000000E+00
  0.00000000E+00  0.00000000E+00  0.00000000E+00  2.79284600E+00  0.00000000E+00
  2.79284600E+00  2.79284600E+00
MicOpt                                     I   N=          17
          -1          -1          -1          -1          -1          -1
          -1          -1          -1          -1          -1          -1
          -1          -1          -1          -1          -1
Number of residues                         I                0
Number of secondary structures             I                0
Redundant internal dimensions              I   N=           4
          86          18          28          40
Redundant internal coordinate indices      I   N=         344
           1           2           0           0           1           5
           0           0           1           7           0           0
           2           3           0           0           2           8
           0           0           3           4           0           0
           3           9           0           0           4           5
           0           0           4          10           0           0
           5           6           0           0          10          11
           0           0          10          12           0           0
          11          13           0           0          11          14
           0           0          12          15           0           0
          13          15           0           0          13          16
           0           0          15          17           0           0
           2           1           5           0           2           1
           7           0           5           1           7           0
           1           2           3           0           1           2
           8           0           3           2           8           0
           2           3           4           0           2           3
           9           0           4           3           9           0
           3           4           5           0           3           4
          10           0           5           4          10           0
           1           5           4           0           1           5
           6           0           4           5           6           0
           4          10          11           0           4          10
          12           0          11          10          12           0
          10          11          13           0          10          11
          14           0          13          11          14           0
          10          12          15           0          11          13
          15           0          11          13          16           0
          15          13          16           0          12          15
          13           0          12          15          17           0
          13          15          17           0           5           1
           2           3           5           1           2           8
           7           1           2           3           7           1
           2           8           2           1           5           4
           2           1           5           6           7           1
           5           4           7           1           5           6
           1           2           3           4           1           2
           3           9           8           2           3           4
           8           2           3           9           2           3
           4           5           2           3           4          10
           9           3           4           5           9           3
           4          10           3           4           5           1
           3           4           5           6          10           4
           5           1          10           4           5           6
           3           4          10          11           3           4
          10          12           5           4          10          11
           5           4          10          12           4          10
          11          13           4          10          11          14
          12          10          11          13          12          10
          11          14           4          10          12          15
          11          10          12          15          10          11
          13          15          10          11          13          16
          14          11          13          15          14          11
          13          16          10          12          15          13
          10          12          15          17          11          13
          15          12          11          13          15          17
          16          13          15          12          16          13
          15          17
Redundant internal coordinates             R   N=          86
  2.60870646E+00  2.59497517E+00  2.04069541E+00  2.68345643E+00  2.04309076E+00
  2.62415616E+00  2.04274931E+00  2.61328065E+00  2.73229932E+00  1.90659863E+00
  2.60011520E+00  3.32215492E+00  2.69459847E+00  2.04832975E+00  3.28556245E+00
  2.58306343E+00  2.04936121E+00  2.04288079E+00  1.88003776E+00  2.28981968E+00
  2.11332780E+00  1.87566946E+00  2.19571379E+00  2.21171457E+00  1.88220072E+00
  2.21815606E+00  2.18219310E+00  1.86412134E+00  2.28131239E+00  2.13774378E+00
  1.92267546E+00  2.18674093E+00  2.16794681E+00  2.24167484E+00  2.11780354E+00
  1.92353645E+00  1.98002667E+00  2.13715850E+00  2.16559643E+00  1.60221716E+00
  1.97505552E+00  2.15740575E+00  2.15058554E+00  1.94362944E+00  2.09397135E+00
  2.24558315E+00 -4.40966360E-03  3.12371864E+00  3.13758135E+00 -1.74756595E-02
  1.01552375E-02  3.03969770E+00 -3.13178742E+00 -1.02244952E-01 -2.77677030E-03
  3.10179757E+00 -3.13074608E+00 -2.61717349E-02  8.77905214E-03 -3.13707198E+00
 -3.09675268E+00  4.05815969E-02 -1.18036035E-02 -3.04280368E+00  3.13361571E+00
  1.02615629E-01  4.46651809E-01 -2.67307161E+00 -2.69977342E+00  4.63688464E-01
 -3.13108088E+00  3.99016537E-02 -9.39161908E-03 -3.12159439E+00  3.14123822E+00
  1.78986405E-02 -7.55031705E-03 -3.13174702E+00  3.10409881E+00 -2.00978887E-02
 -2.23457896E-02  3.12087142E+00  2.11151675E-02 -3.12227971E+00 -3.13779533E+00
  1.99509603E-03
ZRed-IntVec                                I   N=          86
           0           0           0           0           0           0
           0           0           0           0           0           0
           0           0           0           0           0           0
           0           0           0           0           0           0
           0           0           0           0           0           0
           0           0           0           0           0           0
           0           0           0           0           0           0
           0           0           0           0           0           0
           0           0           0           0           0           0
           0           0           0           0           0           0
           0           0           0           0           0           0
           0           0           0           0           0           0
           0           0           0           0           0           0
           0           0           0           0           0           0
           0           0
ZRed-FPVec                                 R   N=          86
  0.00000000E+00  0.00000000E+00  0.00000000E+00  0.00000000E+00  0.00000000E+00
  0.00000000E+00  0.00000000E+00  0.00000000E+00  0.00000000E+00  0.00000000E+00
  0.00000000E+00  0.00000000E+00  0.00000000E+00  0.00000000E+00  0.00000000E+00
  0.00000000E+00  0.00000000E+00  0.00000000E+00  0.00000000E+00  0.00000000E+00
  0.00000000E+00  0.00000000E+00  0.00000000E+00  0.00000000E+00  0.00000000E+00
  0.00000000E+00  0.00000000E+00  0.00000000E+00  0.00000000E+00  0.00000000E+00
  0.00000000E+00  0.00000000E+00  0.00000000E+00  0.00000000E+00  0.00000000E+00
  0.00000000E+00  0.00000000E+00  0.00000000E+00  0.00000000E+00  0.00000000E+00
  0.00000000E+00  0.00000000E+00  0.00000000E+00  0.00000000E+00  0.00000000E+00
  0.00000000E+00  0.00000000E+00  0.00000000E+00  0.00000000E+00  0.00000000E+00
  0.00000000E+00  0.00000000E+00  0.00000000E+00  0.00000000E+00  0.00000000E+00
  0.00000000E+00  0.00000000E+00  0.00000000E+00  0.00000000E+00  0.00000000E+00
  0.00000000E+00  0.00000000E+00  0.00000000E+00  0.00000000E+00  0.00000000E+00
  0.00000000E+00  0.00000000E+00  0.00000000E+00  0.00000000E+00  0.00000000E+00
  0.00000000E+00  0.00000000E+00  0.00000000E+00  0.00000000E+00  0.00000000E+00
  0.00000000E+00  0.00000000E+00  0.00000000E+00  0.00000000E+00  0.00000000E+00
  0.00000000E+00  0.00000000E+00  0.00000000E+00  0.00000000E+00  0.00000000E+00
  0.00000000E+00
ZRed-Constraint1                           R   N=          86
  2.60870646E+00  2.59497517E+00  2.04069541E+00  2.68345643E+00  2.04309076E+00
  2.62415616E+00  2.04274931E+00  2.61328065E+00  2.73229932E+00  1.90659863E+00
  2.60011520E+00  3.32215492E+00  2.69459847E+00  2.04832975E+00  3.28556245E+00
  2.58306343E+00  2.04936121E+00  2.04288079E+00  1.88003776E+00  2.28981968E+00
  2.11332780E+00  1.87566946E+00  2.19571379E+00  2.21171457E+00  1.88220072E+00
  2.21815606E+00  2.18219310E+00  1.86412134E+00  2.28131239E+00  2.13774378E+00
  1.92267546E+00  2.18674093E+00  2.16794681E+00  2.24167484E+00  2.11780354E+00
  1.92353645E+00  1.98002667E+00  2.13715850E+00  2.16559643E+00  1.60221716E+00
  1.97505552E+00  2.15740575E+00  2.15058554E+00  1.94362944E+00  2.09397135E+00
  2.24558315E+00 -4.40966360E-03  3.12371864E+00  3.13758135E+00 -1.74756595E-02
  1.01552375E-02  3.03969770E+00 -3.13178742E+00 -1.02244952E-01 -2.77677030E-03
  3.10179757E+00 -3.13074608E+00 -2.61717349E-02  8.77905214E-03 -3.13707198E+00
 -3.09675268E+00  4.05815969E-02 -1.18036035E-02 -3.04280368E+00  3.13361571E+00
  1.02615629E-01  4.46651809E-01 -2.67307161E+00 -2.69977342E+00  4.63688464E-01
 -3.13108088E+00  3.99016537E-02 -9.39161908E-03 -3.12159439E+00  3.14123822E+00
  1.78986405E-02 -7.55031705E-03 -3.13174702E+00  3.10409881E+00 -2.00978887E-02
 -2.23457896E-02  3.12087142E+00  2.11151675E-02 -3.12227971E+00 -3.13779533E+00
  1.99509603E-03
ZRed-Constraint2                           R   N=          86
  2.64892361E+00  2.63011672E+00  2.05841663E+00  2.71151400E+00  2.05001084E+00
  2.64910944E+00  2.04999653E+00  2.63012840E+00  2.91017822E+00  1.85993970E+00
  2.60257996E+00  3.15993967E+00  2.70631098E+00  2.06260344E+00  3.16004662E+00
  2.60251859E+00  2.06262122E+00  2.05640527E+00  1.89224538E+00  2.27063168E+00
  2.12030824E+00  1.87077043E+00  2.20680745E+00  2.20560742E+00  1.87074434E+00
  2.20561373E+00  2.20682723E+00  1.89217572E+00  2.27088479E+00  2.12012480E+00
  1.89884208E+00  2.19207401E+00  2.19226916E+00  2.19349845E+00  2.14258826E+00
  1.94709860E+00  1.94641886E+00  2.18794011E+00  2.14882630E+00  1.63772892E+00
  1.94646924E+00  2.14882931E+00  2.18788675E+00  1.94706215E+00  2.14249266E+00
  2.19363049E+00  6.81397043E-06  3.14157081E+00 -3.14147504E+00  8.89637761E-05
  6.77496546E-05  3.14132398E+00  3.14156101E+00 -3.68065693E-04 -7.76544561E-05
 -3.14156404E+00  3.14154363E+00  5.72460065E-05  1.19584267E-04 -3.14145575E+00
 -3.14157944E+00  3.05392819E-05 -1.17317030E-04 -3.14137350E+00  3.14145980E+00
  2.03620813E-04  2.67798939E-01 -2.87386272E+00 -2.87377444E+00  2.67749204E-01
  3.14101456E+00 -2.92739315E-04 -5.15697364E-04  3.14136231E+00 -3.14131552E+00
  2.16863983E-04  6.32243081E-04 -3.14096695E+00 -3.14123827E+00  3.47848160E-04
  1.53912354E-04 -3.14136911E+00 -4.69486934E-04  3.14105107E+00  3.14112988E+00
 -5.34863681E-04
SymInf integers                            I   N=          26
           1           1           1           1           1           0
           0           0           0           0           0           0
           0           0           0           0           0           0
           0           0           0           0           0           0
           0           0
RotTr to input orientation                 R   N=          12
 -6.41218184E-02  9.97795313E-01 -1.71144892E-02 -9.95955969E-01 -6.50662410E-02
 -6.19523309E-02 -6.29293209E-02  1.30727815E-02  9.97932364E-01 -9.95066578E-01
  3.43123358E-01 -1.32558464E-01
Number of contracted shells                I               55
Number of primitive shells                 I              144
Pure/Cartesian d shells                    I                1
Pure/Cartesian f shells                    I                0
Highest angular momentum                   I                2
Largest degree of contraction              I                6
Shell types                                I   N=          55
           0          -1          -1           2           0          -1
          -1           2           0          -1          -1           2
           0          -1          -1           2           0          -1
          -1           2           0           0           0           0
           0           0           0           0           0          -1
          -1           2           0          -1          -1           2
           0          -1          -1          -1           2           0
          -1          -1           2           0           0           0
          -1          -1           2           0           0           0
           0
Number of primitives per shell             I   N=          55
           6           3           1           1           6           3
           1           1           6           3           1           1
           6           3           1           1           6           3
           1           1           3           1           3           1
           3           1           3           1           6           3
           1           1           6           3           1           1
           6           6           3           1           1           6
           3           1           1           3           1           6
           3           1           1           3           1           3
           1
Shell to atom map                          I   N=          55
           1           1           1           1           2           2
           2           2           3           3           3           3
           4           4           4           4           5           5
           5           5           6           6           7           7
           8           8           9           9          10          10
          10          10          11          11          11          11
          12          12          12          12          12          13
          13          13          13          14          14          15
          15          15          15          16          16          17
          17
Primitive exponents                        R   N=         144
  3.04752488E+03  4.57369518E+02  1.03948685E+02  2.92101553E+01  9.28666296E+00
  3.16392696E+00  7.86827235E+00  1.88128854E+00  5.44249258E-01  1.68714478E-01
  8.00000000E-01  3.04752488E+03  4.57369518E+02  1.03948685E+02  2.92101553E+01
  9.28666296E+00  3.16392696E+00  7.86827235E+00  1.88128854E+00  5.44249258E-01
  1.68714478E-01  8.00000000E-01  3.04752488E+03  4.57369518E+02  1.03948685E+02
  2.92101553E+01  9.28666296E+00  3.16392696E+00  7.86827235E+00  1.88128854E+00
  5.44249258E-01  1.68714478E-01  8.00000000E-01  3.04752488E+03  4.57369518E+02
  1.03948685E+02  2.92101553E+01  9.28666296E+00  3.16392696E+00  7.86827235E+00
  1.88128854E+00  5.44249258E-01  1.68714478E-01  8.00000000E-01  4.17351146E+03
  6.27457911E+02  1.42902093E+02  4.02343293E+01  1.28202129E+01  4.39043701E+00
  1.16263619E+01  2.71627981E+00  7.72218397E-01  2.12031498E-01  8.00000000E-01
  1.87311370E+01  2.82539436E+00  6.40121692E-01  1.61277759E-01  1.87311370E+01
  2.82539436E+00  6.40121692E-01  1.61277759E-01  1.87311370E+01  2.82539436E+00
  6.40121692E-01  1.61277759E-01  1.87311370E+01  2.82539436E+00  6.40121692E-01
  1.61277759E-01  3.04752488E+03  4.57369518E+02  1.03948685E+02  2.92101553E+01
  9.28666296E+00  3.16392696E+00  7.86827235E+00  1.88128854E+00  5.44249258E-01
  1.68714478E-01  8.00000000E-01  3.04752488E+03  4.57369518E+02  1.03948685E+02
  2.92101553E+01  9.28666296E+00  3.16392696E+00  7.86827235E+00  1.88128854E+00
  5.44249258E-01  1.68714478E-01  8.00000000E-01  2.19171000E+04  3.30149000E+03
  7.54146000E+02  2.12711000E+02  6.79896000E+01  2.30515000E+01  4.23735000E+02
  1.00710000E+02  3.21599000E+01  1.18079000E+01  4.63110000E+00  1.87025000E+00
  2.61584000E+00  9.22167000E-01  3.41287000E-01  1.17167000E-01  6.50000000E-01
  3.04752488E+03  4.57369518E+02  1.03948685E+02  2.92101553E+01  9.28666296E+00
  3.16392696E+00  7.86827235E+00  1.88128854E+00  5.44249258E-01  1.68714478E-01
  8.00000000E-01  1.87311370E+01  2.82539436E+00  6.40121692E-01  1.61277759E-01
  3.04752488E+03  4.57369518E+02  1.03948685E+02  2.92101553E+01  9.28666296E+00
  3.16392696E+00  7.86827235E+00  1.88128854E+00  5.44249258E-01  1.68714478E-01
  8.00000000E-01  1.87311370E+01  2.82539436E+00  6.40121692E-01  1.61277759E-01
  1.87311370E+01  2.82539436E+00  6.40121692E-01  1.61277759E-01
Contraction coefficients                   R   N=         144
  1.83473713E-03  1.40373228E-02  6.88426223E-02  2.32184443E-01  4.67941348E-01
  3.62311985E-01 -1.19332420E-01 -1.60854152E-01  1.14345644E+00  1.00000000E+00
  1.00000000E+00  1.83473713E-03  1.40373228E-02  6.88426223E-02  2.32184443E-01
  4.67941348E-01  3.62311985E-01 -1.19332420E-01 -1.60854152E-01  1.14345644E+00
  1.00000000E+00  1.00000000E+00  1.83473713E-03  1.40373228E-02  6.88426223E-02
  2.32184443E-01  4.67941348E-01  3.62311985E-01 -1.19332420E-01 -1.60854152E-01
  1.14345644E+00  1.00000000E+00  1.00000000E+00  1.83473713E-03  1.40373228E-02
  6.88426223E-02  2.32184443E-01  4.67941348E-01  3.62311985E-01 -1.19332420E-01
 -1.60854152E-01  1.14345644E+00  1.00000000E+00  1.00000000E+00  1.83477216E-03
  1.39946270E-02  6.85865518E-02  2.32240873E-01  4.69069948E-01  3.60455199E-01
 -1.14961182E-01 -1.69117479E-01  1.14585195E+00  1.00000000E+00  1.00000000E+00
  3.34946043E-02  2.34726953E-01  8.13757326E-01  1.00000000E+00  3.34946043E-02
  2.34726953E-01  8.13757326E-01  1.00000000E+00  3.34946043E-02  2.34726953E-01
  8.13757326E-01  1.00000000E+00  3.34946043E-02  2.34726953E-01  8.13757326E-01
  1.00000000E+00  1.83473713E-03  1.40373228E-02  6.88426223E-02  2.32184443E-01
  4.67941348E-01  3.62311985E-01 -1.19332420E-01 -1.60854152E-01  1.14345644E+00
  1.00000000E+00  1.00000000E+00  1.83473713E-03  1.40373228E-02  6.88426223E-02
  2.32184443E-01  4.67941348E-01  3.62311985E-01 -1.19332420E-01 -1.60854152E-01
  1.14345644E+00  1.00000000E+00  1.00000000E+00  1.86924085E-03  1.42303065E-02
  6.96962317E-02  2.38487108E-01  4.83307220E-01  3.38074154E-01 -2.37677050E-03
 -3.16930067E-02 -1.13317024E-01  5.60900118E-02  5.92255124E-01  4.55006095E-01
 -2.50373114E-01  6.69567631E-02  1.05450627E+00  1.00000000E+00  1.00000000E+00
  1.83473713E-03  1.40373228E-02  6.88426223E-02  2.32184443E-01  4.67941348E-01
  3.62311985E-01 -1.19332420E-01 -1.60854152E-01  1.14345644E+00  1.00000000E+00
  1.00000000E+00  3.34946043E-02  2.34726953E-01  8.13757326E-01  1.00000000E+00
  1.83473713E-03  1.40373228E-02  6.88426223E-02  2.32184443E-01  4.67941348E-01
  3.62311985E-01 -1.19332420E-01 -1.60854152E-01  1.14345644E+00  1.00000000E+00
  1.00000000E+00  3.34946043E-02  2.34726953E-01  8.13757326E-01  1.00000000E+00
  3.34946043E-02  2.34726953E-01  8.13757326E-01  1.00000000E+00
P(S=P) Contraction coefficients            R   N=         144
  0.00000000E+00  0.00000000E+00  0.00000000E+00  0.00000000E+00  0.00000000E+00
  0.00000000E+00  6.89990666E-02  3.16423961E-01  7.44308291E-01  1.00000000E+00
  0.00000000E+00  0.00000000E+00  0.00000000E+00  0.00000000E+00  0.00000000E+00
  0.00000000E+00  0.00000000E+00  6.89990666E-02  3.16423961E-01  7.44308291E-01
  1.00000000E+00  0.00000000E+00  0.00000000E+00  0.00000000E+00  0.00000000E+00
  0.00000000E+00  0.00000000E+00  0.00000000E+00  6.89990666E-02  3.16423961E-01
  7.44308291E-01  1.00000000E+00  0.00000000E+00  0.00000000E+00  0.00000000E+00
  0.00000000E+00  0.00000000E+00  0.00000000E+00  0.00000000E+00  6.89990666E-02
  3.16423961E-01  7.44308291E-01  1.00000000E+00  0.00000000E+00  0.00000000E+00
  0.00000000E+00  0.00000000E+00  0.00000000E+00  0.00000000E+00  0.00000000E+00
  6.75797439E-02  3.23907296E-01  7.40895140E-01  1.00000000E+00  0.00000000E+00
  0.00000000E+00  0.00000000E+00  0.00000000E+00  0.00000000E+00  0.00000000E+00
  0.00000000E+00  0.00000000E+00  0.00000000E+00  0.00000000E+00  0.00000000E+00
  0.00000000E+00  0.00000000E+00  0.00000000E+00  0.00000000E+00  0.00000000E+00
  0.00000000E+00  0.00000000E+00  0.00000000E+00  0.00000000E+00  0.00000000E+00
  0.00000000E+00  0.00000000E+00  6.89990666E-02  3.16423961E-01  7.44308291E-01
  1.00000000E+00  0.00000000E+00  0.00000000E+00  0.00000000E+00  0.00000000E+00
  0.00000000E+00  0.00000000E+00  0.00000000E+00  6.89990666E-02  3.16423961E-01
  7.44308291E-01  1.00000000E+00  0.00000000E+00  0.00000000E+00  0.00000000E+00
  0.00000000E+00  0.00000000E+00  0.00000000E+00  0.00000000E+00  4.06100998E-03
  3.06812999E-02  1.30451999E-01  3.27204999E-01  4.52850998E-01  2.56041999E-01
 -1.45104895E-02  3.10262776E-01  7.54482456E-01  1.00000000E+00  0.00000000E+00
  0.00000000E+00  0.00000000E+00  0.00000000E+00  0.00000000E+00  0.00000000E+00
  0.00000000E+00  6.89990666E-02  3.16423961E-01  7.44308291E-01  1.00000000E+00
  0.00000000E+00  0.00000000E+00  0.00000000E+00  0.00000000E+00  0.00000000E+00
  0.00000000E+00  0.00000000E+00  0.00000000E+00  0.00000000E+00  0.00000000E+00
  0.00000000E+00  6.89990666E-02  3.16423961E-01  7.44308291E-01  1.00000000E+00
  0.00000000E+00  0.00000000E+00  0.00000000E+00  0.00000000E+00  0.00000000E+00
  0.00000000E+00  0.00000000E+00  0.00000000E+00  0.00000000E+00
Coordinates of each shell                  R   N=         165
 -5.67192666E+00 -1.37526492E+00  3.82539860E-01 -5.67192666E+00 -1.37526492E+00
  3.82539860E-01 -5.67192666E+00 -1.37526492E+00  3.82539860E-01 -5.67192666E+00
 -1.37526492E+00  3.82539860E-01 -6.01154563E+00  1.10925833E+00 -3.36593339E-01
 -6.01154563E+00  1.10925833E+00 -3.36593339E-01 -6.01154563E+00  1.10925833E+00
 -3.36593339E-01 -6.01154563E+00  1.10925833E+00 -3.36593339E-01 -3.57954751E+00
  2.21695784E+00 -5.80161267E-01 -3.57954751E+00  2.21695784E+00 -5.80161267E-01
 -3.57954751E+00  2.21695784E+00 -5.80161267E-01 -3.57954751E+00  2.21695784E+00
 -5.80161267E-01 -1.79773891E+00  3.81193181E-01  4.06620818E-03 -1.79773891E+00
  3.81193181E-01  4.06620818E-03 -1.79773891E+00  3.81193181E-01  4.06620818E-03
 -1.79773891E+00  3.81193181E-01  4.06620818E-03 -3.11900363E+00 -1.80154778E+00
  5.68988456E-01 -3.11900363E+00 -1.80154778E+00  5.68988456E-01 -3.11900363E+00
 -1.80154778E+00  5.68988456E-01 -3.11900363E+00 -1.80154778E+00  5.68988456E-01
 -2.31422047E+00 -3.40560237E+00  1.21276737E+00 -2.31422047E+00 -3.40560237E+00
  1.21276737E+00 -7.01892180E+00 -2.85798050E+00  7.71893634E-01 -7.01892180E+00
 -2.85798050E+00  7.71893634E-01 -7.80854689E+00  2.02108588E+00 -6.73605034E-01
 -7.80854689E+00  2.02108588E+00 -6.73605034E-01 -3.14774444E+00  4.12184063E+00
 -1.17831878E+00 -3.14774444E+00  4.12184063E+00 -1.17831878E+00  9.31249779E-01